# Motion State
# Angle Units : degrees
# Time        	centreOfRotation	centreOfMass	rotation	velocity	omega
0.001         	(0.000000e+00 5.000000e-03 0.000000e+00)	(0.000000e+00 5.000000e-03 0.000000e+00)	(0.000000e+00 0.000000e+00 0.000000e+00)	(0.000000e+00 5.000000e+00 0.000000e+00)	(0.000000e+00 0.000000e+00 0.000000e+00)
0.002         	(0.000000e+00 9.999951e-03 0.000000e+00)	(0.000000e+00 9.999951e-03 0.000000e+00)	(0.000000e+00 0.000000e+00 0.000000e+00)	(0.000000e+00 4.999901e+00 0.000000e+00)	(0.000000e+00 0.000000e+00 0.000000e+00)
0.003         	(0.000000e+00 1.499970e-02 0.000000e+00)	(0.000000e+00 1.499970e-02 0.000000e+00)	(0.000000e+00 0.000000e+00 0.000000e+00)	(0.000000e+00 4.999605e+00 0.000000e+00)	(0.000000e+00 0.000000e+00 0.000000e+00)
0.004         	(0.000000e+00 1.999906e-02 0.000000e+00)	(0.000000e+00 1.999906e-02 0.000000e+00)	(0.000000e+00 0.000000e+00 0.000000e+00)	(0.000000e+00 4.999112e+00 0.000000e+00)	(0.000000e+00 0.000000e+00 0.000000e+00)
0.005         	(0.000000e+00 2.499783e-02 0.000000e+00)	(0.000000e+00 2.499783e-02 0.000000e+00)	(0.000000e+00 0.000000e+00 0.000000e+00)	(0.000000e+00 4.998421e+00 0.000000e+00)	(0.000000e+00 0.000000e+00 0.000000e+00)
0.006         	(0.000000e+00 2.999581e-02 0.000000e+00)	(0.000000e+00 2.999581e-02 0.000000e+00)	(0.000000e+00 0.000000e+00 0.000000e+00)	(0.000000e+00 4.997533e+00 0.000000e+00)	(0.000000e+00 0.000000e+00 0.000000e+00)
0.007         	(0.000000e+00 3.499280e-02 0.000000e+00)	(0.000000e+00 3.499280e-02 0.000000e+00)	(0.000000e+00 0.000000e+00 0.000000e+00)	(0.000000e+00 4.996447e+00 0.000000e+00)	(0.000000e+00 0.000000e+00 0.000000e+00)
0.008         	(0.000000e+00 3.998860e-02 0.000000e+00)	(0.000000e+00 3.998860e-02 0.000000e+00)	(0.000000e+00 0.000000e+00 0.000000e+00)	(0.000000e+00 4.995164e+00 0.000000e+00)	(0.000000e+00 0.000000e+00 0.000000e+00)
0.009         	(0.000000e+00 4.498303e-02 0.000000e+00)	(0.000000e+00 4.498303e-02 0.000000e+00)	(0.000000e+00 0.000000e+00 0.000000e+00)	(0.000000e+00 4.993684e+00 0.000000e+00)	(0.000000e+00 0.000000e+00 0.000000e+00)
0.01          	(0.000000e+00 4.997587e-02 0.000000e+00)	(0.000000e+00 4.997587e-02 0.000000e+00)	(0.000000e+00 0.000000e+00 0.000000e+00)	(0.000000e+00 4.992007e+00 0.000000e+00)	(0.000000e+00 0.000000e+00 0.000000e+00)
0.011         	(0.000000e+00 5.496694e-02 0.000000e+00)	(0.000000e+00 5.496694e-02 0.000000e+00)	(0.000000e+00 0.000000e+00 0.000000e+00)	(0.000000e+00 4.990133e+00 0.000000e+00)	(0.000000e+00 0.000000e+00 0.000000e+00)
0.012         	(0.000000e+00 5.995604e-02 0.000000e+00)	(0.000000e+00 5.995604e-02 0.000000e+00)	(0.000000e+00 0.000000e+00 0.000000e+00)	(0.000000e+00 4.988061e+00 0.000000e+00)	(0.000000e+00 0.000000e+00 0.000000e+00)
0.013         	(0.000000e+00 6.494296e-02 0.000000e+00)	(0.000000e+00 6.494296e-02 0.000000e+00)	(0.000000e+00 0.000000e+00 0.000000e+00)	(0.000000e+00 4.985793e+00 0.000000e+00)	(0.000000e+00 0.000000e+00 0.000000e+00)
0.014         	(0.000000e+00 6.992752e-02 0.000000e+00)	(0.000000e+00 6.992752e-02 0.000000e+00)	(0.000000e+00 0.000000e+00 0.000000e+00)	(0.000000e+00 4.983327e+00 0.000000e+00)	(0.000000e+00 0.000000e+00 0.000000e+00)
0.015         	(0.000000e+00 7.490952e-02 0.000000e+00)	(0.000000e+00 7.490952e-02 0.000000e+00)	(0.000000e+00 0.000000e+00 0.000000e+00)	(0.000000e+00 4.980665e+00 0.000000e+00)	(0.000000e+00 0.000000e+00 0.000000e+00)
0.016         	(0.000000e+00 7.988876e-02 0.000000e+00)	(0.000000e+00 7.988876e-02 0.000000e+00)	(0.000000e+00 0.000000e+00 0.000000e+00)	(0.000000e+00 4.977806e+00 0.000000e+00)	(0.000000e+00 0.000000e+00 0.000000e+00)
0.017         	(0.000000e+00 8.486503e-02 0.000000e+00)	(0.000000e+00 8.486503e-02 0.000000e+00)	(0.000000e+00 0.000000e+00 0.000000e+00)	(0.000000e+00 4.974750e+00 0.000000e+00)	(0.000000e+00 0.000000e+00 0.000000e+00)
0.018         	(0.000000e+00 8.983816e-02 0.000000e+00)	(0.000000e+00 8.983816e-02 0.000000e+00)	(0.000000e+00 0.000000e+00 0.000000e+00)	(0.000000e+00 4.971498e+00 0.000000e+00)	(0.000000e+00 0.000000e+00 0.000000e+00)
0.019         	(0.000000e+00 9.480793e-02 0.000000e+00)	(0.000000e+00 9.480793e-02 0.000000e+00)	(0.000000e+00 0.000000e+00 0.000000e+00)	(0.000000e+00 4.968050e+00 0.000000e+00)	(0.000000e+00 0.000000e+00 0.000000e+00)
0.02          	(0.000000e+00 9.977416e-02 0.000000e+00)	(0.000000e+00 9.977416e-02 0.000000e+00)	(0.000000e+00 0.000000e+00 0.000000e+00)	(0.000000e+00 4.964405e+00 0.000000e+00)	(0.000000e+00 0.000000e+00 0.000000e+00)
0.021         	(0.000000e+00 1.047366e-01 0.000000e+00)	(0.000000e+00 1.047366e-01 0.000000e+00)	(0.000000e+00 0.000000e+00 0.000000e+00)	(0.000000e+00 4.960564e+00 0.000000e+00)	(0.000000e+00 0.000000e+00 0.000000e+00)
0.022         	(0.000000e+00 1.096952e-01 0.000000e+00)	(0.000000e+00 1.096952e-01 0.000000e+00)	(0.000000e+00 0.000000e+00 0.000000e+00)	(0.000000e+00 4.956527e+00 0.000000e+00)	(0.000000e+00 0.000000e+00 0.000000e+00)
0.023         	(0.000000e+00 1.146496e-01 0.000000e+00)	(0.000000e+00 1.146496e-01 0.000000e+00)	(0.000000e+00 0.000000e+00 0.000000e+00)	(0.000000e+00 4.952295e+00 0.000000e+00)	(0.000000e+00 0.000000e+00 0.000000e+00)
0.024         	(0.000000e+00 1.195997e-01 0.000000e+00)	(0.000000e+00 1.195997e-01 0.000000e+00)	(0.000000e+00 0.000000e+00 0.000000e+00)	(0.000000e+00 4.947866e+00 0.000000e+00)	(0.000000e+00 0.000000e+00 0.000000e+00)
0.025         	(0.000000e+00 1.245452e-01 0.000000e+00)	(0.000000e+00 1.245452e-01 0.000000e+00)	(0.000000e+00 0.000000e+00 0.000000e+00)	(0.000000e+00 4.943242e+00 0.000000e+00)	(0.000000e+00 0.000000e+00 0.000000e+00)
0.026         	(0.000000e+00 1.294861e-01 0.000000e+00)	(0.000000e+00 1.294861e-01 0.000000e+00)	(0.000000e+00 0.000000e+00 0.000000e+00)	(0.000000e+00 4.938423e+00 0.000000e+00)	(0.000000e+00 0.000000e+00 0.000000e+00)
0.027         	(0.000000e+00 1.344220e-01 0.000000e+00)	(0.000000e+00 1.344220e-01 0.000000e+00)	(0.000000e+00 0.000000e+00 0.000000e+00)	(0.000000e+00 4.933409e+00 0.000000e+00)	(0.000000e+00 0.000000e+00 0.000000e+00)
0.028         	(0.000000e+00 1.393528e-01 0.000000e+00)	(0.000000e+00 1.393528e-01 0.000000e+00)	(0.000000e+00 0.000000e+00 0.000000e+00)	(0.000000e+00 4.928199e+00 0.000000e+00)	(0.000000e+00 0.000000e+00 0.000000e+00)
0.029         	(0.000000e+00 1.442783e-01 0.000000e+00)	(0.000000e+00 1.442783e-01 0.000000e+00)	(0.000000e+00 0.000000e+00 0.000000e+00)	(0.000000e+00 4.922795e+00 0.000000e+00)	(0.000000e+00 0.000000e+00 0.000000e+00)
0.03          	(0.000000e+00 1.491983e-01 0.000000e+00)	(0.000000e+00 1.491983e-01 0.000000e+00)	(0.000000e+00 0.000000e+00 0.000000e+00)	(0.000000e+00 4.917197e+00 0.000000e+00)	(0.000000e+00 0.000000e+00 0.000000e+00)
0.031         	(0.000000e+00 1.541126e-01 0.000000e+00)	(0.000000e+00 1.541126e-01 0.000000e+00)	(0.000000e+00 0.000000e+00 0.000000e+00)	(0.000000e+00 4.911404e+00 0.000000e+00)	(0.000000e+00 0.000000e+00 0.000000e+00)
0.032         	(0.000000e+00 1.590210e-01 0.000000e+00)	(0.000000e+00 1.590210e-01 0.000000e+00)	(0.000000e+00 0.000000e+00 0.000000e+00)	(0.000000e+00 4.905416e+00 0.000000e+00)	(0.000000e+00 0.000000e+00 0.000000e+00)
0.033         	(0.000000e+00 1.639233e-01 0.000000e+00)	(0.000000e+00 1.639233e-01 0.000000e+00)	(0.000000e+00 0.000000e+00 0.000000e+00)	(0.000000e+00 4.899235e+00 0.000000e+00)	(0.000000e+00 0.000000e+00 0.000000e+00)
0.034         	(0.000000e+00 1.688194e-01 0.000000e+00)	(0.000000e+00 1.688194e-01 0.000000e+00)	(0.000000e+00 0.000000e+00 0.000000e+00)	(0.000000e+00 4.892861e+00 0.000000e+00)	(0.000000e+00 0.000000e+00 0.000000e+00)
0.035         	(0.000000e+00 1.737089e-01 0.000000e+00)	(0.000000e+00 1.737089e-01 0.000000e+00)	(0.000000e+00 0.000000e+00 0.000000e+00)	(0.000000e+00 4.886293e+00 0.000000e+00)	(0.000000e+00 0.000000e+00 0.000000e+00)
0.036         	(0.000000e+00 1.785919e-01 0.000000e+00)	(0.000000e+00 1.785919e-01 0.000000e+00)	(0.000000e+00 0.000000e+00 0.000000e+00)	(0.000000e+00 4.879531e+00 0.000000e+00)	(0.000000e+00 0.000000e+00 0.000000e+00)
0.037         	(0.000000e+00 1.834679e-01 0.000000e+00)	(0.000000e+00 1.834679e-01 0.000000e+00)	(0.000000e+00 0.000000e+00 0.000000e+00)	(0.000000e+00 4.872577e+00 0.000000e+00)	(0.000000e+00 0.000000e+00 0.000000e+00)
0.038         	(0.000000e+00 1.883369e-01 0.000000e+00)	(0.000000e+00 1.883369e-01 0.000000e+00)	(0.000000e+00 0.000000e+00 0.000000e+00)	(0.000000e+00 4.865431e+00 0.000000e+00)	(0.000000e+00 0.000000e+00 0.000000e+00)
0.039         	(0.000000e+00 1.931987e-01 0.000000e+00)	(0.000000e+00 1.931987e-01 0.000000e+00)	(0.000000e+00 0.000000e+00 0.000000e+00)	(0.000000e+00 4.858091e+00 0.000000e+00)	(0.000000e+00 0.000000e+00 0.000000e+00)
0.04          	(0.000000e+00 1.980530e-01 0.000000e+00)	(0.000000e+00 1.980530e-01 0.000000e+00)	(0.000000e+00 0.000000e+00 0.000000e+00)	(0.000000e+00 4.850560e+00 0.000000e+00)	(0.000000e+00 0.000000e+00 0.000000e+00)
0.041         	(0.000000e+00 2.028997e-01 0.000000e+00)	(0.000000e+00 2.028997e-01 0.000000e+00)	(0.000000e+00 0.000000e+00 0.000000e+00)	(0.000000e+00 4.842837e+00 0.000000e+00)	(0.000000e+00 0.000000e+00 0.000000e+00)
0.042         	(0.000000e+00 2.077386e-01 0.000000e+00)	(0.000000e+00 2.077386e-01 0.000000e+00)	(0.000000e+00 0.000000e+00 0.000000e+00)	(0.000000e+00 4.834923e+00 0.000000e+00)	(0.000000e+00 0.000000e+00 0.000000e+00)
0.043         	(0.000000e+00 2.125694e-01 0.000000e+00)	(0.000000e+00 2.125694e-01 0.000000e+00)	(0.000000e+00 0.000000e+00 0.000000e+00)	(0.000000e+00 4.826817e+00 0.000000e+00)	(0.000000e+00 0.000000e+00 0.000000e+00)
0.044         	(0.000000e+00 2.173921e-01 0.000000e+00)	(0.000000e+00 2.173921e-01 0.000000e+00)	(0.000000e+00 0.000000e+00 0.000000e+00)	(0.000000e+00 4.818520e+00 0.000000e+00)	(0.000000e+00 0.000000e+00 0.000000e+00)
0.045         	(0.000000e+00 2.222064e-01 0.000000e+00)	(0.000000e+00 2.222064e-01 0.000000e+00)	(0.000000e+00 0.000000e+00 0.000000e+00)	(0.000000e+00 4.810033e+00 0.000000e+00)	(0.000000e+00 0.000000e+00 0.000000e+00)
0.046         	(0.000000e+00 2.270121e-01 0.000000e+00)	(0.000000e+00 2.270121e-01 0.000000e+00)	(0.000000e+00 0.000000e+00 0.000000e+00)	(0.000000e+00 4.801356e+00 0.000000e+00)	(0.000000e+00 0.000000e+00 0.000000e+00)
0.047         	(0.000000e+00 2.318090e-01 0.000000e+00)	(0.000000e+00 2.318090e-01 0.000000e+00)	(0.000000e+00 0.000000e+00 0.000000e+00)	(0.000000e+00 4.792489e+00 0.000000e+00)	(0.000000e+00 0.000000e+00 0.000000e+00)
0.048         	(0.000000e+00 2.365970e-01 0.000000e+00)	(0.000000e+00 2.365970e-01 0.000000e+00)	(0.000000e+00 0.000000e+00 0.000000e+00)	(0.000000e+00 4.783432e+00 0.000000e+00)	(0.000000e+00 0.000000e+00 0.000000e+00)
0.049         	(0.000000e+00 2.413758e-01 0.000000e+00)	(0.000000e+00 2.413758e-01 0.000000e+00)	(0.000000e+00 0.000000e+00 0.000000e+00)	(0.000000e+00 4.774186e+00 0.000000e+00)	(0.000000e+00 0.000000e+00 0.000000e+00)
0.05          	(0.000000e+00 2.461452e-01 0.000000e+00)	(0.000000e+00 2.461452e-01 0.000000e+00)	(0.000000e+00 0.000000e+00 0.000000e+00)	(0.000000e+00 4.764751e+00 0.000000e+00)	(0.000000e+00 0.000000e+00 0.000000e+00)
0.051         	(0.000000e+00 2.509052e-01 0.000000e+00)	(0.000000e+00 2.509052e-01 0.000000e+00)	(0.000000e+00 0.000000e+00 0.000000e+00)	(0.000000e+00 4.755128e+00 0.000000e+00)	(0.000000e+00 0.000000e+00 0.000000e+00)
0.052         	(0.000000e+00 2.556554e-01 0.000000e+00)	(0.000000e+00 2.556554e-01 0.000000e+00)	(0.000000e+00 0.000000e+00 0.000000e+00)	(0.000000e+00 4.745317e+00 0.000000e+00)	(0.000000e+00 0.000000e+00 0.000000e+00)
0.053         	(0.000000e+00 2.603957e-01 0.000000e+00)	(0.000000e+00 2.603957e-01 0.000000e+00)	(0.000000e+00 0.000000e+00 0.000000e+00)	(0.000000e+00 4.735318e+00 0.000000e+00)	(0.000000e+00 0.000000e+00 0.000000e+00)
0.054         	(0.000000e+00 2.651260e-01 0.000000e+00)	(0.000000e+00 2.651260e-01 0.000000e+00)	(0.000000e+00 0.000000e+00 0.000000e+00)	(0.000000e+00 4.725131e+00 0.000000e+00)	(0.000000e+00 0.000000e+00 0.000000e+00)
0.055         	(0.000000e+00 2.698459e-01 0.000000e+00)	(0.000000e+00 2.698459e-01 0.000000e+00)	(0.000000e+00 0.000000e+00 0.000000e+00)	(0.000000e+00 4.714758e+00 0.000000e+00)	(0.000000e+00 0.000000e+00 0.000000e+00)
0.056         	(0.000000e+00 2.745554e-01 0.000000e+00)	(0.000000e+00 2.745554e-01 0.000000e+00)	(0.000000e+00 0.000000e+00 0.000000e+00)	(0.000000e+00 4.704198e+00 0.000000e+00)	(0.000000e+00 0.000000e+00 0.000000e+00)
0.057         	(0.000000e+00 2.792542e-01 0.000000e+00)	(0.000000e+00 2.792542e-01 0.000000e+00)	(0.000000e+00 0.000000e+00 0.000000e+00)	(0.000000e+00 4.693452e+00 0.000000e+00)	(0.000000e+00 0.000000e+00 0.000000e+00)
0.058         	(0.000000e+00 2.839422e-01 0.000000e+00)	(0.000000e+00 2.839422e-01 0.000000e+00)	(0.000000e+00 0.000000e+00 0.000000e+00)	(0.000000e+00 4.682520e+00 0.000000e+00)	(0.000000e+00 0.000000e+00 0.000000e+00)
0.059         	(0.000000e+00 2.886191e-01 0.000000e+00)	(0.000000e+00 2.886191e-01 0.000000e+00)	(0.000000e+00 0.000000e+00 0.000000e+00)	(0.000000e+00 4.671403e+00 0.000000e+00)	(0.000000e+00 0.000000e+00 0.000000e+00)
0.06          	(0.000000e+00 2.932849e-01 0.000000e+00)	(0.000000e+00 2.932849e-01 0.000000e+00)	(0.000000e+00 0.000000e+00 0.000000e+00)	(0.000000e+00 4.660101e+00 0.000000e+00)	(0.000000e+00 0.000000e+00 0.000000e+00)
0.061         	(0.000000e+00 2.979393e-01 0.000000e+00)	(0.000000e+00 2.979393e-01 0.000000e+00)	(0.000000e+00 0.000000e+00 0.000000e+00)	(0.000000e+00 4.648615e+00 0.000000e+00)	(0.000000e+00 0.000000e+00 0.000000e+00)
0.062         	(0.000000e+00 3.025820e-01 0.000000e+00)	(0.000000e+00 3.025820e-01 0.000000e+00)	(0.000000e+00 0.000000e+00 0.000000e+00)	(0.000000e+00 4.636944e+00 0.000000e+00)	(0.000000e+00 0.000000e+00 0.000000e+00)
0.063         	(0.000000e+00 3.072131e-01 0.000000e+00)	(0.000000e+00 3.072131e-01 0.000000e+00)	(0.000000e+00 0.000000e+00 0.000000e+00)	(0.000000e+00 4.625091e+00 0.000000e+00)	(0.000000e+00 0.000000e+00 0.000000e+00)
0.064         	(0.000000e+00 3.118321e-01 0.000000e+00)	(0.000000e+00 3.118321e-01 0.000000e+00)	(0.000000e+00 0.000000e+00 0.000000e+00)	(0.000000e+00 4.613054e+00 0.000000e+00)	(0.000000e+00 0.000000e+00 0.000000e+00)
0.065         	(0.000000e+00 3.164391e-01 0.000000e+00)	(0.000000e+00 3.164391e-01 0.000000e+00)	(0.000000e+00 0.000000e+00 0.000000e+00)	(0.000000e+00 4.600834e+00 0.000000e+00)	(0.000000e+00 0.000000e+00 0.000000e+00)
0.066         	(0.000000e+00 3.210337e-01 0.000000e+00)	(0.000000e+00 3.210337e-01 0.000000e+00)	(0.000000e+00 0.000000e+00 0.000000e+00)	(0.000000e+00 4.588433e+00 0.000000e+00)	(0.000000e+00 0.000000e+00 0.000000e+00)
0.067         	(0.000000e+00 3.256158e-01 0.000000e+00)	(0.000000e+00 3.256158e-01 0.000000e+00)	(0.000000e+00 0.000000e+00 0.000000e+00)	(0.000000e+00 4.575849e+00 0.000000e+00)	(0.000000e+00 0.000000e+00 0.000000e+00)
0.068         	(0.000000e+00 3.301853e-01 0.000000e+00)	(0.000000e+00 3.301853e-01 0.000000e+00)	(0.000000e+00 0.000000e+00 0.000000e+00)	(0.000000e+00 4.563085e+00 0.000000e+00)	(0.000000e+00 0.000000e+00 0.000000e+00)
0.069         	(0.000000e+00 3.347419e-01 0.000000e+00)	(0.000000e+00 3.347419e-01 0.000000e+00)	(0.000000e+00 0.000000e+00 0.000000e+00)	(0.000000e+00 4.550140e+00 0.000000e+00)	(0.000000e+00 0.000000e+00 0.000000e+00)
0.07          	(0.000000e+00 3.392855e-01 0.000000e+00)	(0.000000e+00 3.392855e-01 0.000000e+00)	(0.000000e+00 0.000000e+00 0.000000e+00)	(0.000000e+00 4.537015e+00 0.000000e+00)	(0.000000e+00 0.000000e+00 0.000000e+00)
0.071         	(0.000000e+00 3.438159e-01 0.000000e+00)	(0.000000e+00 3.438159e-01 0.000000e+00)	(0.000000e+00 0.000000e+00 0.000000e+00)	(0.000000e+00 4.523710e+00 0.000000e+00)	(0.000000e+00 0.000000e+00 0.000000e+00)
0.072         	(0.000000e+00 3.483328e-01 0.000000e+00)	(0.000000e+00 3.483328e-01 0.000000e+00)	(0.000000e+00 0.000000e+00 0.000000e+00)	(0.000000e+00 4.510226e+00 0.000000e+00)	(0.000000e+00 0.000000e+00 0.000000e+00)
0.073         	(0.000000e+00 3.528362e-01 0.000000e+00)	(0.000000e+00 3.528362e-01 0.000000e+00)	(0.000000e+00 0.000000e+00 0.000000e+00)	(0.000000e+00 4.496564e+00 0.000000e+00)	(0.000000e+00 0.000000e+00 0.000000e+00)
0.074         	(0.000000e+00 3.573259e-01 0.000000e+00)	(0.000000e+00 3.573259e-01 0.000000e+00)	(0.000000e+00 0.000000e+00 0.000000e+00)	(0.000000e+00 4.482723e+00 0.000000e+00)	(0.000000e+00 0.000000e+00 0.000000e+00)
0.075         	(0.000000e+00 3.618016e-01 0.000000e+00)	(0.000000e+00 3.618016e-01 0.000000e+00)	(0.000000e+00 0.000000e+00 0.000000e+00)	(0.000000e+00 4.468705e+00 0.000000e+00)	(0.000000e+00 0.000000e+00 0.000000e+00)
0.076         	(0.000000e+00 3.662632e-01 0.000000e+00)	(0.000000e+00 3.662632e-01 0.000000e+00)	(0.000000e+00 0.000000e+00 0.000000e+00)	(0.000000e+00 4.454510e+00 0.000000e+00)	(0.000000e+00 0.000000e+00 0.000000e+00)
0.077         	(0.000000e+00 3.707105e-01 0.000000e+00)	(0.000000e+00 3.707105e-01 0.000000e+00)	(0.000000e+00 0.000000e+00 0.000000e+00)	(0.000000e+00 4.440139e+00 0.000000e+00)	(0.000000e+00 0.000000e+00 0.000000e+00)
0.078         	(0.000000e+00 3.751434e-01 0.000000e+00)	(0.000000e+00 3.751434e-01 0.000000e+00)	(0.000000e+00 0.000000e+00 0.000000e+00)	(0.000000e+00 4.425592e+00 0.000000e+00)	(0.000000e+00 0.000000e+00 0.000000e+00)
0.079         	(0.000000e+00 3.795616e-01 0.000000e+00)	(0.000000e+00 3.795616e-01 0.000000e+00)	(0.000000e+00 0.000000e+00 0.000000e+00)	(0.000000e+00 4.410869e+00 0.000000e+00)	(0.000000e+00 0.000000e+00 0.000000e+00)
0.08          	(0.000000e+00 3.839650e-01 0.000000e+00)	(0.000000e+00 3.839650e-01 0.000000e+00)	(0.000000e+00 0.000000e+00 0.000000e+00)	(0.000000e+00 4.395972e+00 0.000000e+00)	(0.000000e+00 0.000000e+00 0.000000e+00)
0.081         	(0.000000e+00 3.883535e-01 0.000000e+00)	(0.000000e+00 3.883535e-01 0.000000e+00)	(0.000000e+00 0.000000e+00 0.000000e+00)	(0.000000e+00 4.380900e+00 0.000000e+00)	(0.000000e+00 0.000000e+00 0.000000e+00)
0.082         	(0.000000e+00 3.927267e-01 0.000000e+00)	(0.000000e+00 3.927267e-01 0.000000e+00)	(0.000000e+00 0.000000e+00 0.000000e+00)	(0.000000e+00 4.365655e+00 0.000000e+00)	(0.000000e+00 0.000000e+00 0.000000e+00)
0.083         	(0.000000e+00 3.970847e-01 0.000000e+00)	(0.000000e+00 3.970847e-01 0.000000e+00)	(0.000000e+00 0.000000e+00 0.000000e+00)	(0.000000e+00 4.350237e+00 0.000000e+00)	(0.000000e+00 0.000000e+00 0.000000e+00)
0.084         	(0.000000e+00 4.014271e-01 0.000000e+00)	(0.000000e+00 4.014271e-01 0.000000e+00)	(0.000000e+00 0.000000e+00 0.000000e+00)	(0.000000e+00 4.334647e+00 0.000000e+00)	(0.000000e+00 0.000000e+00 0.000000e+00)
0.085         	(0.000000e+00 4.057539e-01 0.000000e+00)	(0.000000e+00 4.057539e-01 0.000000e+00)	(0.000000e+00 0.000000e+00 0.000000e+00)	(0.000000e+00 4.318885e+00 0.000000e+00)	(0.000000e+00 0.000000e+00 0.000000e+00)
0.086         	(0.000000e+00 4.100648e-01 0.000000e+00)	(0.000000e+00 4.100648e-01 0.000000e+00)	(0.000000e+00 0.000000e+00 0.000000e+00)	(0.000000e+00 4.302952e+00 0.000000e+00)	(0.000000e+00 0.000000e+00 0.000000e+00)
0.087         	(0.000000e+00 4.143597e-01 0.000000e+00)	(0.000000e+00 4.143597e-01 0.000000e+00)	(0.000000e+00 0.000000e+00 0.000000e+00)	(0.000000e+00 4.286848e+00 0.000000e+00)	(0.000000e+00 0.000000e+00 0.000000e+00)
0.088         	(0.000000e+00 4.186384e-01 0.000000e+00)	(0.000000e+00 4.186384e-01 0.000000e+00)	(0.000000e+00 0.000000e+00 0.000000e+00)	(0.000000e+00 4.270575e+00 0.000000e+00)	(0.000000e+00 0.000000e+00 0.000000e+00)
0.089         	(0.000000e+00 4.229008e-01 0.000000e+00)	(0.000000e+00 4.229008e-01 0.000000e+00)	(0.000000e+00 0.000000e+00 0.000000e+00)	(0.000000e+00 4.254132e+00 0.000000e+00)	(0.000000e+00 0.000000e+00 0.000000e+00)
0.09          	(0.000000e+00 4.271466e-01 0.000000e+00)	(0.000000e+00 4.271466e-01 0.000000e+00)	(0.000000e+00 0.000000e+00 0.000000e+00)	(0.000000e+00 4.237521e+00 0.000000e+00)	(0.000000e+00 0.000000e+00 0.000000e+00)
0.091         	(0.000000e+00 4.313757e-01 0.000000e+00)	(0.000000e+00 4.313757e-01 0.000000e+00)	(0.000000e+00 0.000000e+00 0.000000e+00)	(0.000000e+00 4.220742e+00 0.000000e+00)	(0.000000e+00 0.000000e+00 0.000000e+00)
0.092         	(0.000000e+00 4.355880e-01 0.000000e+00)	(0.000000e+00 4.355880e-01 0.000000e+00)	(0.000000e+00 0.000000e+00 0.000000e+00)	(0.000000e+00 4.203795e+00 0.000000e+00)	(0.000000e+00 0.000000e+00 0.000000e+00)
0.093         	(0.000000e+00 4.397833e-01 0.000000e+00)	(0.000000e+00 4.397833e-01 0.000000e+00)	(0.000000e+00 0.000000e+00 0.000000e+00)	(0.000000e+00 4.186682e+00 0.000000e+00)	(0.000000e+00 0.000000e+00 0.000000e+00)
0.094         	(0.000000e+00 4.439613e-01 0.000000e+00)	(0.000000e+00 4.439613e-01 0.000000e+00)	(0.000000e+00 0.000000e+00 0.000000e+00)	(0.000000e+00 4.169403e+00 0.000000e+00)	(0.000000e+00 0.000000e+00 0.000000e+00)
0.095         	(0.000000e+00 4.481220e-01 0.000000e+00)	(0.000000e+00 4.481220e-01 0.000000e+00)	(0.000000e+00 0.000000e+00 0.000000e+00)	(0.000000e+00 4.151958e+00 0.000000e+00)	(0.000000e+00 0.000000e+00 0.000000e+00)
0.096         	(0.000000e+00 4.522651e-01 0.000000e+00)	(0.000000e+00 4.522651e-01 0.000000e+00)	(0.000000e+00 0.000000e+00 0.000000e+00)	(0.000000e+00 4.134349e+00 0.000000e+00)	(0.000000e+00 0.000000e+00 0.000000e+00)
0.097         	(0.000000e+00 4.563906e-01 0.000000e+00)	(0.000000e+00 4.563906e-01 0.000000e+00)	(0.000000e+00 0.000000e+00 0.000000e+00)	(0.000000e+00 4.116576e+00 0.000000e+00)	(0.000000e+00 0.000000e+00 0.000000e+00)
0.098         	(0.000000e+00 4.604982e-01 0.000000e+00)	(0.000000e+00 4.604982e-01 0.000000e+00)	(0.000000e+00 0.000000e+00 0.000000e+00)	(0.000000e+00 4.098640e+00 0.000000e+00)	(0.000000e+00 0.000000e+00 0.000000e+00)
0.099         	(0.000000e+00 4.645878e-01 0.000000e+00)	(0.000000e+00 4.645878e-01 0.000000e+00)	(0.000000e+00 0.000000e+00 0.000000e+00)	(0.000000e+00 4.080542e+00 0.000000e+00)	(0.000000e+00 0.000000e+00 0.000000e+00)
0.1           	(0.000000e+00 4.686592e-01 0.000000e+00)	(0.000000e+00 4.686592e-01 0.000000e+00)	(0.000000e+00 0.000000e+00 0.000000e+00)	(0.000000e+00 4.062281e+00 0.000000e+00)	(0.000000e+00 0.000000e+00 0.000000e+00)
0.101         	(0.000000e+00 4.727123e-01 0.000000e+00)	(0.000000e+00 4.727123e-01 0.000000e+00)	(0.000000e+00 0.000000e+00 0.000000e+00)	(0.000000e+00 4.043860e+00 0.000000e+00)	(0.000000e+00 0.000000e+00 0.000000e+00)
0.102         	(0.000000e+00 4.767468e-01 0.000000e+00)	(0.000000e+00 4.767468e-01 0.000000e+00)	(0.000000e+00 0.000000e+00 0.000000e+00)	(0.000000e+00 4.025278e+00 0.000000e+00)	(0.000000e+00 0.000000e+00 0.000000e+00)
0.103         	(0.000000e+00 4.807627e-01 0.000000e+00)	(0.000000e+00 4.807627e-01 0.000000e+00)	(0.000000e+00 0.000000e+00 0.000000e+00)	(0.000000e+00 4.006536e+00 0.000000e+00)	(0.000000e+00 0.000000e+00 0.000000e+00)
0.104         	(0.000000e+00 4.847598e-01 0.000000e+00)	(0.000000e+00 4.847598e-01 0.000000e+00)	(0.000000e+00 0.000000e+00 0.000000e+00)	(0.000000e+00 3.987636e+00 0.000000e+00)	(0.000000e+00 0.000000e+00 0.000000e+00)
0.105         	(0.000000e+00 4.887379e-01 0.000000e+00)	(0.000000e+00 4.887379e-01 0.000000e+00)	(0.000000e+00 0.000000e+00 0.000000e+00)	(0.000000e+00 3.968577e+00 0.000000e+00)	(0.000000e+00 0.000000e+00 0.000000e+00)
0.106         	(0.000000e+00 4.926969e-01 0.000000e+00)	(0.000000e+00 4.926969e-01 0.000000e+00)	(0.000000e+00 0.000000e+00 0.000000e+00)	(0.000000e+00 3.949361e+00 0.000000e+00)	(0.000000e+00 0.000000e+00 0.000000e+00)
0.107         	(0.000000e+00 4.966366e-01 0.000000e+00)	(0.000000e+00 4.966366e-01 0.000000e+00)	(0.000000e+00 0.000000e+00 0.000000e+00)	(0.000000e+00 3.929988e+00 0.000000e+00)	(0.000000e+00 0.000000e+00 0.000000e+00)
0.108         	(0.000000e+00 5.005568e-01 0.000000e+00)	(0.000000e+00 5.005568e-01 0.000000e+00)	(0.000000e+00 0.000000e+00 0.000000e+00)	(0.000000e+00 3.910460e+00 0.000000e+00)	(0.000000e+00 0.000000e+00 0.000000e+00)
0.109         	(0.000000e+00 5.044574e-01 0.000000e+00)	(0.000000e+00 5.044574e-01 0.000000e+00)	(0.000000e+00 0.000000e+00 0.000000e+00)	(0.000000e+00 3.890776e+00 0.000000e+00)	(0.000000e+00 0.000000e+00 0.000000e+00)
0.11          	(0.000000e+00 5.083383e-01 0.000000e+00)	(0.000000e+00 5.083383e-01 0.000000e+00)	(0.000000e+00 0.000000e+00 0.000000e+00)	(0.000000e+00 3.870938e+00 0.000000e+00)	(0.000000e+00 0.000000e+00 0.000000e+00)
0.111         	(0.000000e+00 5.121992e-01 0.000000e+00)	(0.000000e+00 5.121992e-01 0.000000e+00)	(0.000000e+00 0.000000e+00 0.000000e+00)	(0.000000e+00 3.850946e+00 0.000000e+00)	(0.000000e+00 0.000000e+00 0.000000e+00)
0.112         	(0.000000e+00 5.160401e-01 0.000000e+00)	(0.000000e+00 5.160401e-01 0.000000e+00)	(0.000000e+00 0.000000e+00 0.000000e+00)	(0.000000e+00 3.830801e+00 0.000000e+00)	(0.000000e+00 0.000000e+00 0.000000e+00)
0.113         	(0.000000e+00 5.198608e-01 0.000000e+00)	(0.000000e+00 5.198608e-01 0.000000e+00)	(0.000000e+00 0.000000e+00 0.000000e+00)	(0.000000e+00 3.810505e+00 0.000000e+00)	(0.000000e+00 0.000000e+00 0.000000e+00)
0.114         	(0.000000e+00 5.236610e-01 0.000000e+00)	(0.000000e+00 5.236610e-01 0.000000e+00)	(0.000000e+00 0.000000e+00 0.000000e+00)	(0.000000e+00 3.790057e+00 0.000000e+00)	(0.000000e+00 0.000000e+00 0.000000e+00)
0.115         	(0.000000e+00 5.274408e-01 0.000000e+00)	(0.000000e+00 5.274408e-01 0.000000e+00)	(0.000000e+00 0.000000e+00 0.000000e+00)	(0.000000e+00 3.769458e+00 0.000000e+00)	(0.000000e+00 0.000000e+00 0.000000e+00)
0.116         	(0.000000e+00 5.311999e-01 0.000000e+00)	(0.000000e+00 5.311999e-01 0.000000e+00)	(0.000000e+00 0.000000e+00 0.000000e+00)	(0.000000e+00 3.748710e+00 0.000000e+00)	(0.000000e+00 0.000000e+00 0.000000e+00)
0.117         	(0.000000e+00 5.349381e-01 0.000000e+00)	(0.000000e+00 5.349381e-01 0.000000e+00)	(0.000000e+00 0.000000e+00 0.000000e+00)	(0.000000e+00 3.727814e+00 0.000000e+00)	(0.000000e+00 0.000000e+00 0.000000e+00)
0.118         	(0.000000e+00 5.386554e-01 0.000000e+00)	(0.000000e+00 5.386554e-01 0.000000e+00)	(0.000000e+00 0.000000e+00 0.000000e+00)	(0.000000e+00 3.706769e+00 0.000000e+00)	(0.000000e+00 0.000000e+00 0.000000e+00)
0.119         	(0.000000e+00 5.423516e-01 0.000000e+00)	(0.000000e+00 5.423516e-01 0.000000e+00)	(0.000000e+00 0.000000e+00 0.000000e+00)	(0.000000e+00 3.685577e+00 0.000000e+00)	(0.000000e+00 0.000000e+00 0.000000e+00)
0.12          	(0.000000e+00 5.460265e-01 0.000000e+00)	(0.000000e+00 5.460265e-01 0.000000e+00)	(0.000000e+00 0.000000e+00 0.000000e+00)	(0.000000e+00 3.664239e+00 0.000000e+00)	(0.000000e+00 0.000000e+00 0.000000e+00)
0.121         	(0.000000e+00 5.496800e-01 0.000000e+00)	(0.000000e+00 5.496800e-01 0.000000e+00)	(0.000000e+00 0.000000e+00 0.000000e+00)	(0.000000e+00 3.642755e+00 0.000000e+00)	(0.000000e+00 0.000000e+00 0.000000e+00)
0.122         	(0.000000e+00 5.533119e-01 0.000000e+00)	(0.000000e+00 5.533119e-01 0.000000e+00)	(0.000000e+00 0.000000e+00 0.000000e+00)	(0.000000e+00 3.621127e+00 0.000000e+00)	(0.000000e+00 0.000000e+00 0.000000e+00)
0.123         	(0.000000e+00 5.569222e-01 0.000000e+00)	(0.000000e+00 5.569222e-01 0.000000e+00)	(0.000000e+00 0.000000e+00 0.000000e+00)	(0.000000e+00 3.599355e+00 0.000000e+00)	(0.000000e+00 0.000000e+00 0.000000e+00)
0.124         	(0.000000e+00 5.605106e-01 0.000000e+00)	(0.000000e+00 5.605106e-01 0.000000e+00)	(0.000000e+00 0.000000e+00 0.000000e+00)	(0.000000e+00 3.577439e+00 0.000000e+00)	(0.000000e+00 0.000000e+00 0.000000e+00)
0.125         	(0.000000e+00 5.640770e-01 0.000000e+00)	(0.000000e+00 5.640770e-01 0.000000e+00)	(0.000000e+00 0.000000e+00 0.000000e+00)	(0.000000e+00 3.555382e+00 0.000000e+00)	(0.000000e+00 0.000000e+00 0.000000e+00)
0.126         	(0.000000e+00 5.676213e-01 0.000000e+00)	(0.000000e+00 5.676213e-01 0.000000e+00)	(0.000000e+00 0.000000e+00 0.000000e+00)	(0.000000e+00 3.533184e+00 0.000000e+00)	(0.000000e+00 0.000000e+00 0.000000e+00)
0.127         	(0.000000e+00 5.711433e-01 0.000000e+00)	(0.000000e+00 5.711433e-01 0.000000e+00)	(0.000000e+00 0.000000e+00 0.000000e+00)	(0.000000e+00 3.510845e+00 0.000000e+00)	(0.000000e+00 0.000000e+00 0.000000e+00)
0.128         	(0.000000e+00 5.746429e-01 0.000000e+00)	(0.000000e+00 5.746429e-01 0.000000e+00)	(0.000000e+00 0.000000e+00 0.000000e+00)	(0.000000e+00 3.488367e+00 0.000000e+00)	(0.000000e+00 0.000000e+00 0.000000e+00)
0.129         	(0.000000e+00 5.781200e-01 0.000000e+00)	(0.000000e+00 5.781200e-01 0.000000e+00)	(0.000000e+00 0.000000e+00 0.000000e+00)	(0.000000e+00 3.465750e+00 0.000000e+00)	(0.000000e+00 0.000000e+00 0.000000e+00)
0.13          	(0.000000e+00 5.815743e-01 0.000000e+00)	(0.000000e+00 5.815743e-01 0.000000e+00)	(0.000000e+00 0.000000e+00 0.000000e+00)	(0.000000e+00 3.442995e+00 0.000000e+00)	(0.000000e+00 0.000000e+00 0.000000e+00)
0.131         	(0.000000e+00 5.850059e-01 0.000000e+00)	(0.000000e+00 5.850059e-01 0.000000e+00)	(0.000000e+00 0.000000e+00 0.000000e+00)	(0.000000e+00 3.420104e+00 0.000000e+00)	(0.000000e+00 0.000000e+00 0.000000e+00)
0.132         	(0.000000e+00 5.884145e-01 0.000000e+00)	(0.000000e+00 5.884145e-01 0.000000e+00)	(0.000000e+00 0.000000e+00 0.000000e+00)	(0.000000e+00 3.397076e+00 0.000000e+00)	(0.000000e+00 0.000000e+00 0.000000e+00)
0.133         	(0.000000e+00 5.918000e-01 0.000000e+00)	(0.000000e+00 5.918000e-01 0.000000e+00)	(0.000000e+00 0.000000e+00 0.000000e+00)	(0.000000e+00 3.373914e+00 0.000000e+00)	(0.000000e+00 0.000000e+00 0.000000e+00)
0.134         	(0.000000e+00 5.951622e-01 0.000000e+00)	(0.000000e+00 5.951622e-01 0.000000e+00)	(0.000000e+00 0.000000e+00 0.000000e+00)	(0.000000e+00 3.350617e+00 0.000000e+00)	(0.000000e+00 0.000000e+00 0.000000e+00)
0.135         	(0.000000e+00 5.985011e-01 0.000000e+00)	(0.000000e+00 5.985011e-01 0.000000e+00)	(0.000000e+00 0.000000e+00 0.000000e+00)	(0.000000e+00 3.327188e+00 0.000000e+00)	(0.000000e+00 0.000000e+00 0.000000e+00)