# Motion State
# Angle Units : degrees
# Time        	centreOfRotation	centreOfMass	rotation	velocity	omega
0.001         	(0.000000e+00 5.000000e-03 0.000000e+00)	(0.000000e+00 5.000000e-03 0.000000e+00)	(0.000000e+00 0.000000e+00 0.000000e+00)	(0.000000e+00 4.999901e+00 0.000000e+00)	(0.000000e+00 0.000000e+00 0.000000e+00)
0.002         	(0.000000e+00 9.999803e-03 0.000000e+00)	(0.000000e+00 9.999803e-03 0.000000e+00)	(0.000000e+00 0.000000e+00 0.000000e+00)	(0.000000e+00 4.999605e+00 0.000000e+00)	(0.000000e+00 0.000000e+00 0.000000e+00)
0.003         	(0.000000e+00 1.499921e-02 0.000000e+00)	(0.000000e+00 1.499921e-02 0.000000e+00)	(0.000000e+00 0.000000e+00 0.000000e+00)	(0.000000e+00 4.999112e+00 0.000000e+00)	(0.000000e+00 0.000000e+00 0.000000e+00)
0.004         	(0.000000e+00 1.999803e-02 0.000000e+00)	(0.000000e+00 1.999803e-02 0.000000e+00)	(0.000000e+00 0.000000e+00 0.000000e+00)	(0.000000e+00 4.998421e+00 0.000000e+00)	(0.000000e+00 0.000000e+00 0.000000e+00)
0.005         	(0.000000e+00 2.499605e-02 0.000000e+00)	(0.000000e+00 2.499605e-02 0.000000e+00)	(0.000000e+00 0.000000e+00 0.000000e+00)	(0.000000e+00 4.997533e+00 0.000000e+00)	(0.000000e+00 0.000000e+00 0.000000e+00)
0.006         	(0.000000e+00 2.999309e-02 0.000000e+00)	(0.000000e+00 2.999309e-02 0.000000e+00)	(0.000000e+00 0.000000e+00 0.000000e+00)	(0.000000e+00 4.996447e+00 0.000000e+00)	(0.000000e+00 0.000000e+00 0.000000e+00)
0.007         	(0.000000e+00 3.498895e-02 0.000000e+00)	(0.000000e+00 3.498895e-02 0.000000e+00)	(0.000000e+00 0.000000e+00 0.000000e+00)	(0.000000e+00 4.995165e+00 0.000000e+00)	(0.000000e+00 0.000000e+00 0.000000e+00)
0.008         	(0.000000e+00 3.998342e-02 0.000000e+00)	(0.000000e+00 3.998342e-02 0.000000e+00)	(0.000000e+00 0.000000e+00 0.000000e+00)	(0.000000e+00 4.993685e+00 0.000000e+00)	(0.000000e+00 0.000000e+00 0.000000e+00)
0.009         	(0.000000e+00 4.497632e-02 0.000000e+00)	(0.000000e+00 4.497632e-02 0.000000e+00)	(0.000000e+00 0.000000e+00 0.000000e+00)	(0.000000e+00 4.992008e+00 0.000000e+00)	(0.000000e+00 0.000000e+00 0.000000e+00)
0.01          	(0.000000e+00 4.996744e-02 0.000000e+00)	(0.000000e+00 4.996744e-02 0.000000e+00)	(0.000000e+00 0.000000e+00 0.000000e+00)	(0.000000e+00 4.990134e+00 0.000000e+00)	(0.000000e+00 0.000000e+00 0.000000e+00)
0.011         	(0.000000e+00 5.495658e-02 0.000000e+00)	(0.000000e+00 5.495658e-02 0.000000e+00)	(0.000000e+00 0.000000e+00 0.000000e+00)	(0.000000e+00 4.988062e+00 0.000000e+00)	(0.000000e+00 0.000000e+00 0.000000e+00)
0.012         	(0.000000e+00 5.994356e-02 0.000000e+00)	(0.000000e+00 5.994356e-02 0.000000e+00)	(0.000000e+00 0.000000e+00 0.000000e+00)	(0.000000e+00 4.985794e+00 0.000000e+00)	(0.000000e+00 0.000000e+00 0.000000e+00)
0.013         	(0.000000e+00 6.492817e-02 0.000000e+00)	(0.000000e+00 6.492817e-02 0.000000e+00)	(0.000000e+00 0.000000e+00 0.000000e+00)	(0.000000e+00 4.983330e+00 0.000000e+00)	(0.000000e+00 0.000000e+00 0.000000e+00)
0.014         	(0.000000e+00 6.991022e-02 0.000000e+00)	(0.000000e+00 6.991022e-02 0.000000e+00)	(0.000000e+00 0.000000e+00 0.000000e+00)	(0.000000e+00 4.980668e+00 0.000000e+00)	(0.000000e+00 0.000000e+00 0.000000e+00)
0.015         	(0.000000e+00 7.488951e-02 0.000000e+00)	(0.000000e+00 7.488951e-02 0.000000e+00)	(0.000000e+00 0.000000e+00 0.000000e+00)	(0.000000e+00 4.977810e+00 0.000000e+00)	(0.000000e+00 0.000000e+00 0.000000e+00)
0.016         	(0.000000e+00 7.986584e-02 0.000000e+00)	(0.000000e+00 7.986584e-02 0.000000e+00)	(0.000000e+00 0.000000e+00 0.000000e+00)	(0.000000e+00 4.974755e+00 0.000000e+00)	(0.000000e+00 0.000000e+00 0.000000e+00)
0.017         	(0.000000e+00 8.483902e-02 0.000000e+00)	(0.000000e+00 8.483902e-02 0.000000e+00)	(0.000000e+00 0.000000e+00 0.000000e+00)	(0.000000e+00 4.971504e+00 0.000000e+00)	(0.000000e+00 0.000000e+00 0.000000e+00)
0.018         	(0.000000e+00 8.980885e-02 0.000000e+00)	(0.000000e+00 8.980885e-02 0.000000e+00)	(0.000000e+00 0.000000e+00 0.000000e+00)	(0.000000e+00 4.968056e+00 0.000000e+00)	(0.000000e+00 0.000000e+00 0.000000e+00)
0.019         	(0.000000e+00 9.477513e-02 0.000000e+00)	(0.000000e+00 9.477513e-02 0.000000e+00)	(0.000000e+00 0.000000e+00 0.000000e+00)	(0.000000e+00 4.964413e+00 0.000000e+00)	(0.000000e+00 0.000000e+00 0.000000e+00)
0.02          	(0.000000e+00 9.973767e-02 0.000000e+00)	(0.000000e+00 9.973767e-02 0.000000e+00)	(0.000000e+00 0.000000e+00 0.000000e+00)	(0.000000e+00 4.960573e+00 0.000000e+00)	(0.000000e+00 0.000000e+00 0.000000e+00)
0.021         	(0.000000e+00 1.046963e-01 0.000000e+00)	(0.000000e+00 1.046963e-01 0.000000e+00)	(0.000000e+00 0.000000e+00 0.000000e+00)	(0.000000e+00 4.956538e+00 0.000000e+00)	(0.000000e+00 0.000000e+00 0.000000e+00)
0.022         	(0.000000e+00 1.096507e-01 0.000000e+00)	(0.000000e+00 1.096507e-01 0.000000e+00)	(0.000000e+00 0.000000e+00 0.000000e+00)	(0.000000e+00 4.952307e+00 0.000000e+00)	(0.000000e+00 0.000000e+00 0.000000e+00)
0.023         	(0.000000e+00 1.146009e-01 0.000000e+00)	(0.000000e+00 1.146009e-01 0.000000e+00)	(0.000000e+00 0.000000e+00 0.000000e+00)	(0.000000e+00 4.947880e+00 0.000000e+00)	(0.000000e+00 0.000000e+00 0.000000e+00)
0.024         	(0.000000e+00 1.195465e-01 0.000000e+00)	(0.000000e+00 1.195465e-01 0.000000e+00)	(0.000000e+00 0.000000e+00 0.000000e+00)	(0.000000e+00 4.943259e+00 0.000000e+00)	(0.000000e+00 0.000000e+00 0.000000e+00)
0.025         	(0.000000e+00 1.244874e-01 0.000000e+00)	(0.000000e+00 1.244874e-01 0.000000e+00)	(0.000000e+00 0.000000e+00 0.000000e+00)	(0.000000e+00 4.938442e+00 0.000000e+00)	(0.000000e+00 0.000000e+00 0.000000e+00)
0.026         	(0.000000e+00 1.294234e-01 0.000000e+00)	(0.000000e+00 1.294234e-01 0.000000e+00)	(0.000000e+00 0.000000e+00 0.000000e+00)	(0.000000e+00 4.933430e+00 0.000000e+00)	(0.000000e+00 0.000000e+00 0.000000e+00)
0.027         	(0.000000e+00 1.343543e-01 0.000000e+00)	(0.000000e+00 1.343543e-01 0.000000e+00)	(0.000000e+00 0.000000e+00 0.000000e+00)	(0.000000e+00 4.928223e+00 0.000000e+00)	(0.000000e+00 0.000000e+00 0.000000e+00)
0.028         	(0.000000e+00 1.392798e-01 0.000000e+00)	(0.000000e+00 1.392798e-01 0.000000e+00)	(0.000000e+00 0.000000e+00 0.000000e+00)	(0.000000e+00 4.922821e+00 0.000000e+00)	(0.000000e+00 0.000000e+00 0.000000e+00)
0.029         	(0.000000e+00 1.441999e-01 0.000000e+00)	(0.000000e+00 1.441999e-01 0.000000e+00)	(0.000000e+00 0.000000e+00 0.000000e+00)	(0.000000e+00 4.917226e+00 0.000000e+00)	(0.000000e+00 0.000000e+00 0.000000e+00)
0.03          	(0.000000e+00 1.491143e-01 0.000000e+00)	(0.000000e+00 1.491143e-01 0.000000e+00)	(0.000000e+00 0.000000e+00 0.000000e+00)	(0.000000e+00 4.911436e+00 0.000000e+00)	(0.000000e+00 0.000000e+00 0.000000e+00)
0.031         	(0.000000e+00 1.540228e-01 0.000000e+00)	(0.000000e+00 1.540228e-01 0.000000e+00)	(0.000000e+00 0.000000e+00 0.000000e+00)	(0.000000e+00 4.905452e+00 0.000000e+00)	(0.000000e+00 0.000000e+00 0.000000e+00)
0.032         	(0.000000e+00 1.589252e-01 0.000000e+00)	(0.000000e+00 1.589252e-01 0.000000e+00)	(0.000000e+00 0.000000e+00 0.000000e+00)	(0.000000e+00 4.899275e+00 0.000000e+00)	(0.000000e+00 0.000000e+00 0.000000e+00)
0.033         	(0.000000e+00 1.638213e-01 0.000000e+00)	(0.000000e+00 1.638213e-01 0.000000e+00)	(0.000000e+00 0.000000e+00 0.000000e+00)	(0.000000e+00 4.892904e+00 0.000000e+00)	(0.000000e+00 0.000000e+00 0.000000e+00)
0.034         	(0.000000e+00 1.687110e-01 0.000000e+00)	(0.000000e+00 1.687110e-01 0.000000e+00)	(0.000000e+00 0.000000e+00 0.000000e+00)	(0.000000e+00 4.886340e+00 0.000000e+00)	(0.000000e+00 0.000000e+00 0.000000e+00)
0.035         	(0.000000e+00 1.735940e-01 0.000000e+00)	(0.000000e+00 1.735940e-01 0.000000e+00)	(0.000000e+00 0.000000e+00 0.000000e+00)	(0.000000e+00 4.879583e+00 0.000000e+00)	(0.000000e+00 0.000000e+00 0.000000e+00)
0.036         	(0.000000e+00 1.784702e-01 0.000000e+00)	(0.000000e+00 1.784702e-01 0.000000e+00)	(0.000000e+00 0.000000e+00 0.000000e+00)	(0.000000e+00 4.872634e+00 0.000000e+00)	(0.000000e+00 0.000000e+00 0.000000e+00)
0.037         	(0.000000e+00 1.833393e-01 0.000000e+00)	(0.000000e+00 1.833393e-01 0.000000e+00)	(0.000000e+00 0.000000e+00 0.000000e+00)	(0.000000e+00 4.865492e+00 0.000000e+00)	(0.000000e+00 0.000000e+00 0.000000e+00)
0.038         	(0.000000e+00 1.882012e-01 0.000000e+00)	(0.000000e+00 1.882012e-01 0.000000e+00)	(0.000000e+00 0.000000e+00 0.000000e+00)	(0.000000e+00 4.858158e+00 0.000000e+00)	(0.000000e+00 0.000000e+00 0.000000e+00)
0.039         	(0.000000e+00 1.930556e-01 0.000000e+00)	(0.000000e+00 1.930556e-01 0.000000e+00)	(0.000000e+00 0.000000e+00 0.000000e+00)	(0.000000e+00 4.850632e+00 0.000000e+00)	(0.000000e+00 0.000000e+00 0.000000e+00)
0.04          	(0.000000e+00 1.979024e-01 0.000000e+00)	(0.000000e+00 1.979024e-01 0.000000e+00)	(0.000000e+00 0.000000e+00 0.000000e+00)	(0.000000e+00 4.842915e+00 0.000000e+00)	(0.000000e+00 0.000000e+00 0.000000e+00)
0.041         	(0.000000e+00 2.027414e-01 0.000000e+00)	(0.000000e+00 2.027414e-01 0.000000e+00)	(0.000000e+00 0.000000e+00 0.000000e+00)	(0.000000e+00 4.835007e+00 0.000000e+00)	(0.000000e+00 0.000000e+00 0.000000e+00)
0.042         	(0.000000e+00 2.075724e-01 0.000000e+00)	(0.000000e+00 2.075724e-01 0.000000e+00)	(0.000000e+00 0.000000e+00 0.000000e+00)	(0.000000e+00 4.826908e+00 0.000000e+00)	(0.000000e+00 0.000000e+00 0.000000e+00)
0.043         	(0.000000e+00 2.123952e-01 0.000000e+00)	(0.000000e+00 2.123952e-01 0.000000e+00)	(0.000000e+00 0.000000e+00 0.000000e+00)	(0.000000e+00 4.818618e+00 0.000000e+00)	(0.000000e+00 0.000000e+00 0.000000e+00)
0.044         	(0.000000e+00 2.172097e-01 0.000000e+00)	(0.000000e+00 2.172097e-01 0.000000e+00)	(0.000000e+00 0.000000e+00 0.000000e+00)	(0.000000e+00 4.810138e+00 0.000000e+00)	(0.000000e+00 0.000000e+00 0.000000e+00)
0.045         	(0.000000e+00 2.220155e-01 0.000000e+00)	(0.000000e+00 2.220155e-01 0.000000e+00)	(0.000000e+00 0.000000e+00 0.000000e+00)	(0.000000e+00 4.801468e+00 0.000000e+00)	(0.000000e+00 0.000000e+00 0.000000e+00)
0.046         	(0.000000e+00 2.268126e-01 0.000000e+00)	(0.000000e+00 2.268126e-01 0.000000e+00)	(0.000000e+00 0.000000e+00 0.000000e+00)	(0.000000e+00 4.792608e+00 0.000000e+00)	(0.000000e+00 0.000000e+00 0.000000e+00)
0.047         	(0.000000e+00 2.316007e-01 0.000000e+00)	(0.000000e+00 2.316007e-01 0.000000e+00)	(0.000000e+00 0.000000e+00 0.000000e+00)	(0.000000e+00 4.783560e+00 0.000000e+00)	(0.000000e+00 0.000000e+00 0.000000e+00)
0.048         	(0.000000e+00 2.363797e-01 0.000000e+00)	(0.000000e+00 2.363797e-01 0.000000e+00)	(0.000000e+00 0.000000e+00 0.000000e+00)	(0.000000e+00 4.774322e+00 0.000000e+00)	(0.000000e+00 0.000000e+00 0.000000e+00)
0.049         	(0.000000e+00 2.411494e-01 0.000000e+00)	(0.000000e+00 2.411494e-01 0.000000e+00)	(0.000000e+00 0.000000e+00 0.000000e+00)	(0.000000e+00 4.764896e+00 0.000000e+00)	(0.000000e+00 0.000000e+00 0.000000e+00)
0.05          	(0.000000e+00 2.459095e-01 0.000000e+00)	(0.000000e+00 2.459095e-01 0.000000e+00)	(0.000000e+00 0.000000e+00 0.000000e+00)	(0.000000e+00 4.755282e+00 0.000000e+00)	(0.000000e+00 0.000000e+00 0.000000e+00)
0.051         	(0.000000e+00 2.506599e-01 0.000000e+00)	(0.000000e+00 2.506599e-01 0.000000e+00)	(0.000000e+00 0.000000e+00 0.000000e+00)	(0.000000e+00 4.745480e+00 0.000000e+00)	(0.000000e+00 0.000000e+00 0.000000e+00)
0.052         	(0.000000e+00 2.554005e-01 0.000000e+00)	(0.000000e+00 2.554005e-01 0.000000e+00)	(0.000000e+00 0.000000e+00 0.000000e+00)	(0.000000e+00 4.735491e+00 0.000000e+00)	(0.000000e+00 0.000000e+00 0.000000e+00)
0.053         	(0.000000e+00 2.601309e-01 0.000000e+00)	(0.000000e+00 2.601309e-01 0.000000e+00)	(0.000000e+00 0.000000e+00 0.000000e+00)	(0.000000e+00 4.725314e+00 0.000000e+00)	(0.000000e+00 0.000000e+00 0.000000e+00)
0.054         	(0.000000e+00 2.648511e-01 0.000000e+00)	(0.000000e+00 2.648511e-01 0.000000e+00)	(0.000000e+00 0.000000e+00 0.000000e+00)	(0.000000e+00 4.714952e+00 0.000000e+00)	(0.000000e+00 0.000000e+00 0.000000e+00)
0.055         	(0.000000e+00 2.695608e-01 0.000000e+00)	(0.000000e+00 2.695608e-01 0.000000e+00)	(0.000000e+00 0.000000e+00 0.000000e+00)	(0.000000e+00 4.704403e+00 0.000000e+00)	(0.000000e+00 0.000000e+00 0.000000e+00)
0.056         	(0.000000e+00 2.742599e-01 0.000000e+00)	(0.000000e+00 2.742599e-01 0.000000e+00)	(0.000000e+00 0.000000e+00 0.000000e+00)	(0.000000e+00 4.693668e+00 0.000000e+00)	(0.000000e+00 0.000000e+00 0.000000e+00)
0.057         	(0.000000e+00 2.789482e-01 0.000000e+00)	(0.000000e+00 2.789482e-01 0.000000e+00)	(0.000000e+00 0.000000e+00 0.000000e+00)	(0.000000e+00 4.682748e+00 0.000000e+00)	(0.000000e+00 0.000000e+00 0.000000e+00)
0.058         	(0.000000e+00 2.836254e-01 0.000000e+00)	(0.000000e+00 2.836254e-01 0.000000e+00)	(0.000000e+00 0.000000e+00 0.000000e+00)	(0.000000e+00 4.671644e+00 0.000000e+00)	(0.000000e+00 0.000000e+00 0.000000e+00)
0.059         	(0.000000e+00 2.882915e-01 0.000000e+00)	(0.000000e+00 2.882915e-01 0.000000e+00)	(0.000000e+00 0.000000e+00 0.000000e+00)	(0.000000e+00 4.660354e+00 0.000000e+00)	(0.000000e+00 0.000000e+00 0.000000e+00)
0.06          	(0.000000e+00 2.929461e-01 0.000000e+00)	(0.000000e+00 2.929461e-01 0.000000e+00)	(0.000000e+00 0.000000e+00 0.000000e+00)	(0.000000e+00 4.648881e+00 0.000000e+00)	(0.000000e+00 0.000000e+00 0.000000e+00)
0.061         	(0.000000e+00 2.975892e-01 0.000000e+00)	(0.000000e+00 2.975892e-01 0.000000e+00)	(0.000000e+00 0.000000e+00 0.000000e+00)	(0.000000e+00 4.637225e+00 0.000000e+00)	(0.000000e+00 0.000000e+00 0.000000e+00)
0.062         	(0.000000e+00 3.022206e-01 0.000000e+00)	(0.000000e+00 3.022206e-01 0.000000e+00)	(0.000000e+00 0.000000e+00 0.000000e+00)	(0.000000e+00 4.625385e+00 0.000000e+00)	(0.000000e+00 0.000000e+00 0.000000e+00)
0.063         	(0.000000e+00 3.068400e-01 0.000000e+00)	(0.000000e+00 3.068400e-01 0.000000e+00)	(0.000000e+00 0.000000e+00 0.000000e+00)	(0.000000e+00 4.613362e+00 0.000000e+00)	(0.000000e+00 0.000000e+00 0.000000e+00)
0.064         	(0.000000e+00 3.114473e-01 0.000000e+00)	(0.000000e+00 3.114473e-01 0.000000e+00)	(0.000000e+00 0.000000e+00 0.000000e+00)	(0.000000e+00 4.601158e+00 0.000000e+00)	(0.000000e+00 0.000000e+00 0.000000e+00)
0.065         	(0.000000e+00 3.160423e-01 0.000000e+00)	(0.000000e+00 3.160423e-01 0.000000e+00)	(0.000000e+00 0.000000e+00 0.000000e+00)	(0.000000e+00 4.588772e+00 0.000000e+00)	(0.000000e+00 0.000000e+00 0.000000e+00)
0.066         	(0.000000e+00 3.206248e-01 0.000000e+00)	(0.000000e+00 3.206248e-01 0.000000e+00)	(0.000000e+00 0.000000e+00 0.000000e+00)	(0.000000e+00 4.576204e+00 0.000000e+00)	(0.000000e+00 0.000000e+00 0.000000e+00)
0.067         	(0.000000e+00 3.251947e-01 0.000000e+00)	(0.000000e+00 3.251947e-01 0.000000e+00)	(0.000000e+00 0.000000e+00 0.000000e+00)	(0.000000e+00 4.563457e+00 0.000000e+00)	(0.000000e+00 0.000000e+00 0.000000e+00)
0.068         	(0.000000e+00 3.297517e-01 0.000000e+00)	(0.000000e+00 3.297517e-01 0.000000e+00)	(0.000000e+00 0.000000e+00 0.000000e+00)	(0.000000e+00 4.550528e+00 0.000000e+00)	(0.000000e+00 0.000000e+00 0.000000e+00)
0.069         	(0.000000e+00 3.342958e-01 0.000000e+00)	(0.000000e+00 3.342958e-01 0.000000e+00)	(0.000000e+00 0.000000e+00 0.000000e+00)	(0.000000e+00 4.537421e+00 0.000000e+00)	(0.000000e+00 0.000000e+00 0.000000e+00)
0.07          	(0.000000e+00 3.388266e-01 0.000000e+00)	(0.000000e+00 3.388266e-01 0.000000e+00)	(0.000000e+00 0.000000e+00 0.000000e+00)	(0.000000e+00 4.524134e+00 0.000000e+00)	(0.000000e+00 0.000000e+00 0.000000e+00)
0.071         	(0.000000e+00 3.433440e-01 0.000000e+00)	(0.000000e+00 3.433440e-01 0.000000e+00)	(0.000000e+00 0.000000e+00 0.000000e+00)	(0.000000e+00 4.510668e+00 0.000000e+00)	(0.000000e+00 0.000000e+00 0.000000e+00)
0.072         	(0.000000e+00 3.478479e-01 0.000000e+00)	(0.000000e+00 3.478479e-01 0.000000e+00)	(0.000000e+00 0.000000e+00 0.000000e+00)	(0.000000e+00 4.497025e+00 0.000000e+00)	(0.000000e+00 0.000000e+00 0.000000e+00)
0.073         	(0.000000e+00 3.523381e-01 0.000000e+00)	(0.000000e+00 3.523381e-01 0.000000e+00)	(0.000000e+00 0.000000e+00 0.000000e+00)	(0.000000e+00 4.483204e+00 0.000000e+00)	(0.000000e+00 0.000000e+00 0.000000e+00)
0.074         	(0.000000e+00 3.568143e-01 0.000000e+00)	(0.000000e+00 3.568143e-01 0.000000e+00)	(0.000000e+00 0.000000e+00 0.000000e+00)	(0.000000e+00 4.469205e+00 0.000000e+00)	(0.000000e+00 0.000000e+00 0.000000e+00)
0.075         	(0.000000e+00 3.612765e-01 0.000000e+00)	(0.000000e+00 3.612765e-01 0.000000e+00)	(0.000000e+00 0.000000e+00 0.000000e+00)	(0.000000e+00 4.455031e+00 0.000000e+00)	(0.000000e+00 0.000000e+00 0.000000e+00)
0.076         	(0.000000e+00 3.657244e-01 0.000000e+00)	(0.000000e+00 3.657244e-01 0.000000e+00)	(0.000000e+00 0.000000e+00 0.000000e+00)	(0.000000e+00 4.440680e+00 0.000000e+00)	(0.000000e+00 0.000000e+00 0.000000e+00)
0.077         	(0.000000e+00 3.701579e-01 0.000000e+00)	(0.000000e+00 3.701579e-01 0.000000e+00)	(0.000000e+00 0.000000e+00 0.000000e+00)	(0.000000e+00 4.426155e+00 0.000000e+00)	(0.000000e+00 0.000000e+00 0.000000e+00)
0.078         	(0.000000e+00 3.745767e-01 0.000000e+00)	(0.000000e+00 3.745767e-01 0.000000e+00)	(0.000000e+00 0.000000e+00 0.000000e+00)	(0.000000e+00 4.411454e+00 0.000000e+00)	(0.000000e+00 0.000000e+00 0.000000e+00)
0.079         	(0.000000e+00 3.789808e-01 0.000000e+00)	(0.000000e+00 3.789808e-01 0.000000e+00)	(0.000000e+00 0.000000e+00 0.000000e+00)	(0.000000e+00 4.396580e+00 0.000000e+00)	(0.000000e+00 0.000000e+00 0.000000e+00)
0.08          	(0.000000e+00 3.833699e-01 0.000000e+00)	(0.000000e+00 3.833699e-01 0.000000e+00)	(0.000000e+00 0.000000e+00 0.000000e+00)	(0.000000e+00 4.381531e+00 0.000000e+00)	(0.000000e+00 0.000000e+00 0.000000e+00)
0.081         	(0.000000e+00 3.877438e-01 0.000000e+00)	(0.000000e+00 3.877438e-01 0.000000e+00)	(0.000000e+00 0.000000e+00 0.000000e+00)	(0.000000e+00 4.366310e+00 0.000000e+00)	(0.000000e+00 0.000000e+00 0.000000e+00)
0.082         	(0.000000e+00 3.921025e-01 0.000000e+00)	(0.000000e+00 3.921025e-01 0.000000e+00)	(0.000000e+00 0.000000e+00 0.000000e+00)	(0.000000e+00 4.350917e+00 0.000000e+00)	(0.000000e+00 0.000000e+00 0.000000e+00)
0.083         	(0.000000e+00 3.964457e-01 0.000000e+00)	(0.000000e+00 3.964457e-01 0.000000e+00)	(0.000000e+00 0.000000e+00 0.000000e+00)	(0.000000e+00 4.335351e+00 0.000000e+00)	(0.000000e+00 0.000000e+00 0.000000e+00)
0.084         	(0.000000e+00 4.007732e-01 0.000000e+00)	(0.000000e+00 4.007732e-01 0.000000e+00)	(0.000000e+00 0.000000e+00 0.000000e+00)	(0.000000e+00 4.319615e+00 0.000000e+00)	(0.000000e+00 0.000000e+00 0.000000e+00)
0.085         	(0.000000e+00 4.050849e-01 0.000000e+00)	(0.000000e+00 4.050849e-01 0.000000e+00)	(0.000000e+00 0.000000e+00 0.000000e+00)	(0.000000e+00 4.303708e+00 0.000000e+00)	(0.000000e+00 0.000000e+00 0.000000e+00)
0.086         	(0.000000e+00 4.093806e-01 0.000000e+00)	(0.000000e+00 4.093806e-01 0.000000e+00)	(0.000000e+00 0.000000e+00 0.000000e+00)	(0.000000e+00 4.287631e+00 0.000000e+00)	(0.000000e+00 0.000000e+00 0.000000e+00)
0.087         	(0.000000e+00 4.136602e-01 0.000000e+00)	(0.000000e+00 4.136602e-01 0.000000e+00)	(0.000000e+00 0.000000e+00 0.000000e+00)	(0.000000e+00 4.271385e+00 0.000000e+00)	(0.000000e+00 0.000000e+00 0.000000e+00)
0.088         	(0.000000e+00 4.179234e-01 0.000000e+00)	(0.000000e+00 4.179234e-01 0.000000e+00)	(0.000000e+00 0.000000e+00 0.000000e+00)	(0.000000e+00 4.254970e+00 0.000000e+00)	(0.000000e+00 0.000000e+00 0.000000e+00)
0.089         	(0.000000e+00 4.221701e-01 0.000000e+00)	(0.000000e+00 4.221701e-01 0.000000e+00)	(0.000000e+00 0.000000e+00 0.000000e+00)	(0.000000e+00 4.238387e+00 0.000000e+00)	(0.000000e+00 0.000000e+00 0.000000e+00)
0.09          	(0.000000e+00 4.264001e-01 0.000000e+00)	(0.000000e+00 4.264001e-01 0.000000e+00)	(0.000000e+00 0.000000e+00 0.000000e+00)	(0.000000e+00 4.221637e+00 0.000000e+00)	(0.000000e+00 0.000000e+00 0.000000e+00)
0.091         	(0.000000e+00 4.306134e-01 0.000000e+00)	(0.000000e+00 4.306134e-01 0.000000e+00)	(0.000000e+00 0.000000e+00 0.000000e+00)	(0.000000e+00 4.204720e+00 0.000000e+00)	(0.000000e+00 0.000000e+00 0.000000e+00)
0.092         	(0.000000e+00 4.348096e-01 0.000000e+00)	(0.000000e+00 4.348096e-01 0.000000e+00)	(0.000000e+00 0.000000e+00 0.000000e+00)	(0.000000e+00 4.187638e+00 0.000000e+00)	(0.000000e+00 0.000000e+00 0.000000e+00)
0.093         	(0.000000e+00 4.389886e-01 0.000000e+00)	(0.000000e+00 4.389886e-01 0.000000e+00)	(0.000000e+00 0.000000e+00 0.000000e+00)	(0.000000e+00 4.170390e+00 0.000000e+00)	(0.000000e+00 0.000000e+00 0.000000e+00)
0.094         	(0.000000e+00 4.431504e-01 0.000000e+00)	(0.000000e+00 4.431504e-01 0.000000e+00)	(0.000000e+00 0.000000e+00 0.000000e+00)	(0.000000e+00 4.152977e+00 0.000000e+00)	(0.000000e+00 0.000000e+00 0.000000e+00)
0.095         	(0.000000e+00 4.472946e-01 0.000000e+00)	(0.000000e+00 4.472946e-01 0.000000e+00)	(0.000000e+00 0.000000e+00 0.000000e+00)	(0.000000e+00 4.135400e+00 0.000000e+00)	(0.000000e+00 0.000000e+00 0.000000e+00)
0.096         	(0.000000e+00 4.514212e-01 0.000000e+00)	(0.000000e+00 4.514212e-01 0.000000e+00)	(0.000000e+00 0.000000e+00 0.000000e+00)	(0.000000e+00 4.117660e+00 0.000000e+00)	(0.000000e+00 0.000000e+00 0.000000e+00)
0.097         	(0.000000e+00 4.555299e-01 0.000000e+00)	(0.000000e+00 4.555299e-01 0.000000e+00)	(0.000000e+00 0.000000e+00 0.000000e+00)	(0.000000e+00 4.099758e+00 0.000000e+00)	(0.000000e+00 0.000000e+00 0.000000e+00)
0.098         	(0.000000e+00 4.596207e-01 0.000000e+00)	(0.000000e+00 4.596207e-01 0.000000e+00)	(0.000000e+00 0.000000e+00 0.000000e+00)	(0.000000e+00 4.081693e+00 0.000000e+00)	(0.000000e+00 0.000000e+00 0.000000e+00)
0.099         	(0.000000e+00 4.636933e-01 0.000000e+00)	(0.000000e+00 4.636933e-01 0.000000e+00)	(0.000000e+00 0.000000e+00 0.000000e+00)	(0.000000e+00 4.063468e+00 0.000000e+00)	(0.000000e+00 0.000000e+00 0.000000e+00)
0.1           	(0.000000e+00 4.677476e-01 0.000000e+00)	(0.000000e+00 4.677476e-01 0.000000e+00)	(0.000000e+00 0.000000e+00 0.000000e+00)	(0.000000e+00 4.045082e+00 0.000000e+00)	(0.000000e+00 0.000000e+00 0.000000e+00)
0.101         	(0.000000e+00 4.717835e-01 0.000000e+00)	(0.000000e+00 4.717835e-01 0.000000e+00)	(0.000000e+00 0.000000e+00 0.000000e+00)	(0.000000e+00 4.026536e+00 0.000000e+00)	(0.000000e+00 0.000000e+00 0.000000e+00)
0.102         	(0.000000e+00 4.758007e-01 0.000000e+00)	(0.000000e+00 4.758007e-01 0.000000e+00)	(0.000000e+00 0.000000e+00 0.000000e+00)	(0.000000e+00 4.007832e+00 0.000000e+00)	(0.000000e+00 0.000000e+00 0.000000e+00)
0.103         	(0.000000e+00 4.797991e-01 0.000000e+00)	(0.000000e+00 4.797991e-01 0.000000e+00)	(0.000000e+00 0.000000e+00 0.000000e+00)	(0.000000e+00 3.988969e+00 0.000000e+00)	(0.000000e+00 0.000000e+00 0.000000e+00)
0.104         	(0.000000e+00 4.837786e-01 0.000000e+00)	(0.000000e+00 4.837786e-01 0.000000e+00)	(0.000000e+00 0.000000e+00 0.000000e+00)	(0.000000e+00 3.969949e+00 0.000000e+00)	(0.000000e+00 0.000000e+00 0.000000e+00)
0.105         	(0.000000e+00 4.877390e-01 0.000000e+00)	(0.000000e+00 4.877390e-01 0.000000e+00)	(0.000000e+00 0.000000e+00 0.000000e+00)	(0.000000e+00 3.950772e+00 0.000000e+00)	(0.000000e+00 0.000000e+00 0.000000e+00)
0.106         	(0.000000e+00 4.916802e-01 0.000000e+00)	(0.000000e+00 4.916802e-01 0.000000e+00)	(0.000000e+00 0.000000e+00 0.000000e+00)	(0.000000e+00 3.931439e+00 0.000000e+00)	(0.000000e+00 0.000000e+00 0.000000e+00)
0.107         	(0.000000e+00 4.956019e-01 0.000000e+00)	(0.000000e+00 4.956019e-01 0.000000e+00)	(0.000000e+00 0.000000e+00 0.000000e+00)	(0.000000e+00 3.911951e+00 0.000000e+00)	(0.000000e+00 0.000000e+00 0.000000e+00)
0.108         	(0.000000e+00 4.995041e-01 0.000000e+00)	(0.000000e+00 4.995041e-01 0.000000e+00)	(0.000000e+00 0.000000e+00 0.000000e+00)	(0.000000e+00 3.892308e+00 0.000000e+00)	(0.000000e+00 0.000000e+00 0.000000e+00)
0.109         	(0.000000e+00 5.033865e-01 0.000000e+00)	(0.000000e+00 5.033865e-01 0.000000e+00)	(0.000000e+00 0.000000e+00 0.000000e+00)	(0.000000e+00 3.872512e+00 0.000000e+00)	(0.000000e+00 0.000000e+00 0.000000e+00)
0.11          	(0.000000e+00 5.072491e-01 0.000000e+00)	(0.000000e+00 5.072491e-01 0.000000e+00)	(0.000000e+00 0.000000e+00 0.000000e+00)	(0.000000e+00 3.852563e+00 0.000000e+00)	(0.000000e+00 0.000000e+00 0.000000e+00)
0.111         	(0.000000e+00 5.110916e-01 0.000000e+00)	(0.000000e+00 5.110916e-01 0.000000e+00)	(0.000000e+00 0.000000e+00 0.000000e+00)	(0.000000e+00 3.832461e+00 0.000000e+00)	(0.000000e+00 0.000000e+00 0.000000e+00)
0.112         	(0.000000e+00 5.149140e-01 0.000000e+00)	(0.000000e+00 5.149140e-01 0.000000e+00)	(0.000000e+00 0.000000e+00 0.000000e+00)	(0.000000e+00 3.812209e+00 0.000000e+00)	(0.000000e+00 0.000000e+00 0.000000e+00)
0.113         	(0.000000e+00 5.187161e-01 0.000000e+00)	(0.000000e+00 5.187161e-01 0.000000e+00)	(0.000000e+00 0.000000e+00 0.000000e+00)	(0.000000e+00 3.791806e+00 0.000000e+00)	(0.000000e+00 0.000000e+00 0.000000e+00)
0.114         	(0.000000e+00 5.224976e-01 0.000000e+00)	(0.000000e+00 5.224976e-01 0.000000e+00)	(0.000000e+00 0.000000e+00 0.000000e+00)	(0.000000e+00 3.771253e+00 0.000000e+00)	(0.000000e+00 0.000000e+00 0.000000e+00)
0.115         	(0.000000e+00 5.262586e-01 0.000000e+00)	(0.000000e+00 5.262586e-01 0.000000e+00)	(0.000000e+00 0.000000e+00 0.000000e+00)	(0.000000e+00 3.750551e+00 0.000000e+00)	(0.000000e+00 0.000000e+00 0.000000e+00)
0.116         	(0.000000e+00 5.299987e-01 0.000000e+00)	(0.000000e+00 5.299987e-01 0.000000e+00)	(0.000000e+00 0.000000e+00 0.000000e+00)	(0.000000e+00 3.729702e+00 0.000000e+00)	(0.000000e+00 0.000000e+00 0.000000e+00)
0.117         	(0.000000e+00 5.337180e-01 0.000000e+00)	(0.000000e+00 5.337180e-01 0.000000e+00)	(0.000000e+00 0.000000e+00 0.000000e+00)	(0.000000e+00 3.708705e+00 0.000000e+00)	(0.000000e+00 0.000000e+00 0.000000e+00)
0.118         	(0.000000e+00 5.374161e-01 0.000000e+00)	(0.000000e+00 5.374161e-01 0.000000e+00)	(0.000000e+00 0.000000e+00 0.000000e+00)	(0.000000e+00 3.687561e+00 0.000000e+00)	(0.000000e+00 0.000000e+00 0.000000e+00)
0.119         	(0.000000e+00 5.410931e-01 0.000000e+00)	(0.000000e+00 5.410931e-01 0.000000e+00)	(0.000000e+00 0.000000e+00 0.000000e+00)	(0.000000e+00 3.666273e+00 0.000000e+00)	(0.000000e+00 0.000000e+00 0.000000e+00)
0.12          	(0.000000e+00 5.447487e-01 0.000000e+00)	(0.000000e+00 5.447487e-01 0.000000e+00)	(0.000000e+00 0.000000e+00 0.000000e+00)	(0.000000e+00 3.644839e+00 0.000000e+00)	(0.000000e+00 0.000000e+00 0.000000e+00)
0.121         	(0.000000e+00 5.483828e-01 0.000000e+00)	(0.000000e+00 5.483828e-01 0.000000e+00)	(0.000000e+00 0.000000e+00 0.000000e+00)	(0.000000e+00 3.623261e+00 0.000000e+00)	(0.000000e+00 0.000000e+00 0.000000e+00)
0.122         	(0.000000e+00 5.519952e-01 0.000000e+00)	(0.000000e+00 5.519952e-01 0.000000e+00)	(0.000000e+00 0.000000e+00 0.000000e+00)	(0.000000e+00 3.601541e+00 0.000000e+00)	(0.000000e+00 0.000000e+00 0.000000e+00)
0.123         	(0.000000e+00 5.555859e-01 0.000000e+00)	(0.000000e+00 5.555859e-01 0.000000e+00)	(0.000000e+00 0.000000e+00 0.000000e+00)	(0.000000e+00 3.579678e+00 0.000000e+00)	(0.000000e+00 0.000000e+00 0.000000e+00)
0.124         	(0.000000e+00 5.591546e-01 0.000000e+00)	(0.000000e+00 5.591546e-01 0.000000e+00)	(0.000000e+00 0.000000e+00 0.000000e+00)	(0.000000e+00 3.557674e+00 0.000000e+00)	(0.000000e+00 0.000000e+00 0.000000e+00)
0.125         	(0.000000e+00 5.627012e-01 0.000000e+00)	(0.000000e+00 5.627012e-01 0.000000e+00)	(0.000000e+00 0.000000e+00 0.000000e+00)	(0.000000e+00 3.535529e+00 0.000000e+00)	(0.000000e+00 0.000000e+00 0.000000e+00)
0.126         	(0.000000e+00 5.662256e-01 0.000000e+00)	(0.000000e+00 5.662256e-01 0.000000e+00)	(0.000000e+00 0.000000e+00 0.000000e+00)	(0.000000e+00 3.513245e+00 0.000000e+00)	(0.000000e+00 0.000000e+00 0.000000e+00)
0.127         	(0.000000e+00 5.697277e-01 0.000000e+00)	(0.000000e+00 5.697277e-01 0.000000e+00)	(0.000000e+00 0.000000e+00 0.000000e+00)	(0.000000e+00 3.490822e+00 0.000000e+00)	(0.000000e+00 0.000000e+00 0.000000e+00)
0.128         	(0.000000e+00 5.732073e-01 0.000000e+00)	(0.000000e+00 5.732073e-01 0.000000e+00)	(0.000000e+00 0.000000e+00 0.000000e+00)	(0.000000e+00 3.468262e+00 0.000000e+00)	(0.000000e+00 0.000000e+00 0.000000e+00)
0.129         	(0.000000e+00 5.766642e-01 0.000000e+00)	(0.000000e+00 5.766642e-01 0.000000e+00)	(0.000000e+00 0.000000e+00 0.000000e+00)	(0.000000e+00 3.445564e+00 0.000000e+00)	(0.000000e+00 0.000000e+00 0.000000e+00)
0.13          	(0.000000e+00 5.800984e-01 0.000000e+00)	(0.000000e+00 5.800984e-01 0.000000e+00)	(0.000000e+00 0.000000e+00 0.000000e+00)	(0.000000e+00 3.422731e+00 0.000000e+00)	(0.000000e+00 0.000000e+00 0.000000e+00)
0.131         	(0.000000e+00 5.835097e-01 0.000000e+00)	(0.000000e+00 5.835097e-01 0.000000e+00)	(0.000000e+00 0.000000e+00 0.000000e+00)	(0.000000e+00 3.399762e+00 0.000000e+00)	(0.000000e+00 0.000000e+00 0.000000e+00)
0.132         	(0.000000e+00 5.868979e-01 0.000000e+00)	(0.000000e+00 5.868979e-01 0.000000e+00)	(0.000000e+00 0.000000e+00 0.000000e+00)	(0.000000e+00 3.376659e+00 0.000000e+00)	(0.000000e+00 0.000000e+00 0.000000e+00)
0.133         	(0.000000e+00 5.902630e-01 0.000000e+00)	(0.000000e+00 5.902630e-01 0.000000e+00)	(0.000000e+00 0.000000e+00 0.000000e+00)	(0.000000e+00 3.353423e+00 0.000000e+00)	(0.000000e+00 0.000000e+00 0.000000e+00)
0.134         	(0.000000e+00 5.936048e-01 0.000000e+00)	(0.000000e+00 5.936048e-01 0.000000e+00)	(0.000000e+00 0.000000e+00 0.000000e+00)	(0.000000e+00 3.330054e+00 0.000000e+00)	(0.000000e+00 0.000000e+00 0.000000e+00)
0.135         	(0.000000e+00 5.969231e-01 0.000000e+00)	(0.000000e+00 5.969231e-01 0.000000e+00)	(0.000000e+00 0.000000e+00 0.000000e+00)	(0.000000e+00 3.306554e+00 0.000000e+00)	(0.000000e+00 0.000000e+00 0.000000e+00)