/*--------------------------------*- C++ -*----------------------------------*\
  =========                 |
  \\      /  F ield         | OpenFOAM: The Open Source CFD Toolbox
   \\    /   O peration     | Website:  https://openfoam.org
    \\  /    A nd           | Version:  9
     \\/     M anipulation  |
\*---------------------------------------------------------------------------*/
FoamFile
{
    format      ascii;
    class       surfaceScalarField;
    location    "300";
    object      phi;
}
// * * * * * * * * * * * * * * * * * * * * * * * * * * * * * * * * * * * * * //

dimensions      [0 3 -1 0 0 0 0];

internalField   nonuniform List<scalar> 
19175
(
-2.963e-06
5.00789e-05
-4.71159e-05
-6.32776e-06
0.00013818
-0.000134815
-2.32748e-06
0.000216081
-0.000220082
2.0344e-05
0.00027474
-0.000297412
7.75131e-05
0.000302214
-0.000359383
0.000190688
0.000283036
-0.000396211
0.000388542
0.000197268
-0.000395121
0.000708662
1.94119e-05
-0.000339531
0.00119956
-0.000282983
-0.000207919
0.00192279
-0.000750947
2.77179e-05
0.00295577
-0.00143574
0.000402761
0.00439281
-0.00240038
0.000963341
0.00634664
-0.00372041
0.00176657
0.00894687
-0.00548307
0.00288284
0.0123349
-0.00778396
0.00439594
0.0166529
-0.0107197
0.0064017
0.022024
-0.0143751
0.00900399
0.0285351
-0.0188138
0.0123026
0.036177
-0.0239564
0.0163146
-0.0294724
0.0206357
0.0450137
4.9913e-06
4.50876e-05
2.74866e-05
0.000115685
7.93633e-05
0.000164205
0.000176899
0.000177205
0.000341908
0.000137205
0.000603187
2.1756e-05
0.000998146
-0.000197691
0.00157465
-0.000557095
0.00239297
-0.0011013
0.00352743
-0.00188541
0.00506746
-0.00297577
0.00711701
-0.00444993
0.00979109
-0.00639448
0.0132078
-0.00889982
0.0174744
-0.0120506
0.0226661
-0.0159114
0.0287997
-0.0205087
0.0358177
-0.0258317
0.043591
-0.0317297
-0.0377358
0.0518544
1.35544e-05
3.15332e-05
6.4392e-05
6.4847e-05
0.000169325
5.92718e-05
0.000350447
-3.91732e-06
0.000636433
-0.00014878
0.00106404
-0.00040585
0.0016797
-0.000813349
0.00254104
-0.00141844
0.00371802
-0.00227828
0.00529307
-0.00346045
0.00735929
-0.00504199
0.0100155
-0.00710615
0.0133566
-0.00973561
0.0174583
-0.0130015
0.022356
-0.0169482
0.0280212
-0.0215765
0.0343411
-0.0268287
0.0411078
-0.0325984
0.0480481
-0.03867
-0.0447536
0.0550659
2.29361e-05
8.59715e-06
0.000104876
-1.70927e-05
0.000268041
-0.000103894
0.00054076
-0.000276636
0.000958781
-0.000566801
0.00156657
-0.00101364
0.00241844
-0.00166522
0.00357911
-0.00257911
0.00512309
-0.00382226
0.00713194
-0.0054693
0.00968832
-0.00759838
0.0128656
-0.0102834
0.0167122
-0.0135823
0.0212327
-0.017522
0.0263674
-0.0220829
0.0319795
-0.0271887
0.0378577
-0.0327068
0.0437362
-0.0384769
0.0493656
-0.0442994
-0.0500603
0.0546722
3.35793e-05
-2.49821e-05
0.000150245
-0.000133758
0.000377571
-0.00033122
0.000749802
-0.000648867
0.00130891
-0.00112591
0.00210535
-0.00181008
0.0031981
-0.00275797
0.00465347
-0.00403447
0.00654171
-0.0057105
0.00893055
-0.00785814
0.0118747
-0.0105425
0.0154012
-0.0138099
0.0194925
-0.0176735
0.0240703
-0.0220998
0.0289887
-0.0270013
0.0340423
-0.0322423
0.038996
-0.0376605
0.0436289
-0.0431098
0.047805
-0.0484756
-0.0537785
0.0515233
4.56303e-05
-7.06124e-05
0.000200597
-0.000288725
0.000497093
-0.000627716
0.000974018
-0.00112579
0.00167744
-0.00182934
0.00266031
-0.00279294
0.00398078
-0.00407844
0.00569861
-0.0057523
0.00786856
-0.00788045
0.0105304
-0.01052
0.0136957
-0.0137078
0.017333
-0.0174473
0.0213561
-0.0216966
0.0256204
-0.0263641
0.0299353
-0.0313162
0.0340938
-0.0364008
0.0379165
-0.0414832
0.0412914
-0.0464847
0.0442167
-0.0514009
-0.0562854
0.0467236
5.86735e-05
-0.000129286
0.000253846
-0.000483897
0.000620898
-0.000994768
0.00120115
-0.00170605
0.00204137
-0.00266956
0.00319195
-0.00394352
0.00470324
-0.00558973
0.00661925
-0.00766832
0.00896854
-0.0102297
0.0117525
-0.013304
0.0149331
-0.0168884
0.0184234
-0.0209377
0.0220876
-0.0253608
0.0257532
-0.0300297
0.0292395
-0.0348025
0.0323956
-0.0395569
0.0351347
-0.0442224
0.0374547
-0.0488047
0.0394013
-0.0533474
-0.057968
0.0410839
7.18113e-05
-0.000201097
0.000306074
-0.00071816
0.000739279
-0.00142797
0.00141215
-0.00237892
0.00236789
-0.00362529
0.00364864
-0.00522428
0.00528987
-0.00723095
0.00731214
-0.00969059
0.00971109
-0.0126287
0.0124471
-0.01604
0.0154381
-0.0198794
0.0185603
-0.0240598
0.0216603
-0.0284607
0.0245802
-0.0329496
0.0271905
-0.0374127
0.0294176
-0.041784
0.0312616
-0.0460663
0.0327621
-0.0503052
0.0340106
-0.0545959
-0.0590761
0.0351186
8.38754e-05
-0.000284973
0.000352419
-0.000986703
0.000840729
-0.00191628
0.00158553
-0.00312372
0.00262207
-0.00466183
0.00397909
-0.0065813
0.0056718
-0.00892366
0.00769327
-0.0117121
0.0100058
-0.0149412
0.0125351
-0.0185692
0.0151709
-0.0225152
0.017778
-0.026667
0.0202177
-0.0309004
0.0223752
-0.0351071
0.0241835
-0.0392211
0.0256373
-0.0432377
0.0267683
-0.0471973
0.0276554
-0.0511923
0.0283958
-0.0553363
-0.0597182
0.0290379
9.36455e-05
-0.000378618
0.000388028
-0.00128109
0.00091426
-0.00244252
0.00170184
-0.00391131
0.0027744
-0.00573438
0.0041437
-0.0079506
0.00580242
-0.0105824
0.00771683
-0.0136265
0.00982173
-0.0170461
0.0120209
-0.0207684
0.0141957
-0.02469
0.0162232
-0.0286944
0.0179992
-0.0326764
0.019459
-0.036567
0.0205887
-0.0403508
0.0214088
-0.0440579
0.0219885
-0.047777
0.022409
-0.0516128
0.0227245
-0.0556518
0.0229726
-0.0599662
-2.22097e-05
-0.000128543
0.000150752
-9.04092e-05
-0.000380859
0.000449058
-0.000210264
-0.00064573
0.000765585
-0.000387552
-0.000916017
0.0010933
-0.000627997
-0.00118287
0.00142332
-0.000937144
-0.00143607
0.00174522
-0.00132029
-0.00166442
0.00204757
-0.00178253
-0.00185637
0.00231861
-0.00232883
-0.0020005
0.00254679
-0.002964
-0.00208628
0.00272145
-0.00369282
-0.00210437
0.00283319
-0.00452009
-0.00204618
0.00287344
-0.00545046
-0.00190261
0.00283298
-0.00648811
-0.00166166
0.00269931
-0.00763587
-0.00130528
0.00245304
-0.00889665
-0.000803005
0.00206378
-0.0102643
-0.000119443
0.00148705
-0.0117299
0.000807401
0.000658218
-0.0132847
0.00205225
-0.000497458
0.0037226
-0.0149135
-0.00209377
-2.45246e-05
-0.000104018
-9.89642e-05
-0.000306419
-0.000228358
-0.000516336
-0.000417496
-0.000726878
-0.000670752
-0.000929619
-0.00099199
-0.00111483
-0.00138456
-0.00127186
-0.00185135
-0.00138957
-0.0023949
-0.00145695
-0.00301746
-0.00146372
-0.00372118
-0.00140065
-0.00450808
-0.00125929
-0.0053797
-0.00103099
-0.00633636
-0.000705
-0.00737593
-0.000265712
-0.00848968
0.00031075
-0.00966827
0.00105915
-0.0108896
0.00202877
-0.0121229
0.00328555
0.00492356
-0.0133239
-2.43992e-05
-7.9619e-05
-9.79593e-05
-0.000232859
-0.000224937
-0.000389358
-0.000409002
-0.000542813
-0.00065304
-0.000685581
-0.000959024
-0.000808846
-0.00132797
-0.000902911
-0.00175995
-0.000957598
-0.00225408
-0.000962815
-0.00280869
-0.000909107
-0.00342135
-0.000787983
-0.00408875
-0.000591889
-0.00480613
-0.000313613
-0.00556614
5.50139e-05
-0.00635702
0.000525171
-0.00716
0.00111372
-0.00794724
0.00184639
-0.0086782
0.00275973
-0.00929476
0.00390211
0.00533892
-0.00971012
-2.29358e-05
-5.66832e-05
-9.1757e-05
-0.000164038
-0.000209878
-0.000271237
-0.000379809
-0.000372882
-0.000602918
-0.000462472
-0.000879227
-0.000532536
-0.00120727
-0.000574868
-0.00158396
-0.000580906
-0.00200455
-0.000542232
-0.00246259
-0.000451065
-0.0029499
-0.000300675
-0.00345619
-8.55989e-05
-0.00396845
0.000198647
-0.00446939
0.000555961
-0.00493538
0.000991156
-0.00533322
0.00151157
-0.00561589
0.00212906
-0.00571864
0.00286248
-0.0055561
0.00373957
0.00477138
-0.00498856
-2.12982e-05
-3.53849e-05
-8.48307e-05
-0.000100505
-0.00019315
-0.000162919
-0.000347636
-0.000218396
-0.000548206
-0.000261902
-0.000793019
-0.000287723
-0.0010782
-0.000289685
-0.00139761
-0.000261501
-0.00174262
-0.000197215
-0.00210199
-9.16963e-05
-0.00246153
5.8867e-05
-0.00280369
0.00025656
-0.00310655
0.000501507
-0.00334259
0.000791997
-0.00347631
0.00112488
-0.00346039
0.00149564
-0.00322962
0.00189829
-0.0026924
0.00232526
-0.00172249
0.00276966
0.0032566
-0.000207705
-2.0163e-05
-1.52219e-05
-7.97713e-05
-4.0897e-05
-0.000180482
-6.22078e-05
-0.000322571
-7.63067e-05
-0.000504575
-7.98981e-05
-0.000722917
-6.93814e-05
-0.000971529
-4.10715e-05
-0.0012415
8.47062e-06
-0.00152073
8.20095e-05
-0.00179352
0.000181103
-0.00204017
0.000305512
-0.00223622
0.000452611
-0.00235179
0.000617079
-0.00234981
0.000790014
-0.0021832
0.000958269
-0.00179105
0.0011035
-0.00109265
0.00119989
2.29253e-05
0.00120968
0.00171133
0.00108125
0.000763975
0.00420395
-1.93778e-05
4.15592e-06
-7.59385e-05
1.56637e-05
-0.000170336
3.21897e-05
-0.000301656
5.50135e-05
-0.000466992
8.54377e-05
-0.000660992
0.000124618
-0.00087539
0.000173327
-0.00109852
0.000231596
-0.00131474
0.000298234
-0.00150383
0.00037019
-0.00164041
0.000442098
-0.00169298
0.000505179
-0.00162247
0.00054657
-0.0013804
0.000547943
-0.000906378
0.000484245
-0.000124199
0.00032132
0.00106407
1.16177e-05
0.00278903
-0.000515278
0.00524337
-0.00137308
-0.00274781
0.00875515
-1.80335e-05
2.21894e-05
-6.97641e-05
6.73944e-05
-0.000154599
0.000117025
-0.00027014
0.000170555
-0.000411673
0.00022697
-0.00057161
0.000284556
-0.000738874
0.000340592
-0.000898158
0.00039088
-0.00102915
0.000429223
-0.00110575
0.000446795
-0.00109472
0.000431069
-0.000954057
0.000364514
-0.000631237
0.00022375
-6.05494e-05
-2.27444e-05
0.000839393
-0.000415698
0.00216997
-0.00100926
0.00405626
-0.00187467
0.00665314
-0.00311215
0.0101663
-0.00488624
-0.00755625
0.0149747
-1.50413e-05
3.72307e-05
-5.69636e-05
0.000109317
-0.000123501
0.000183562
-0.000210195
0.000257249
-0.000309761
0.000326537
-0.000411318
0.000386113
-0.000499602
0.000428875
-0.000554043
0.000445321
-0.000547493
0.000422673
-0.000444592
0.000343895
-0.000200011
0.000186487
0.000243971
-7.94677e-05
0.000959799
-0.000492078
0.00203835
-0.0011013
0.00359179
-0.00196913
0.00575471
-0.00317218
0.00868319
-0.00480315
0.0125441
-0.00697308
0.0174951
-0.00983719
-0.0137725
0.0237114
-9.88518e-06
-3.53834e-05
-7.19032e-05
-0.000112066
-0.000144912
-0.00015501
-0.000121256
-1.54666e-05
0.000199287
0.000570901
0.00116015
0.00204402
0.00331852
0.00510006
0.00752686
0.0107564
0.0149572
0.0202868
0.0267642
0.0336273
-0.0164444
0.0106161
-0.00908519
-0.0173067
0.0184962
-0.0176339
-0.017373
0.0278571
-0.0277908
-0.016446
0.0381859
-0.0391128
-0.0144663
0.0484425
-0.0504223
-0.0112088
0.056925
-0.0601825
-0.0063146
0.0616209
-0.0665151
0.000339492
0.0601096
-0.0667637
0.00855737
0.0508258
-0.0590437
0.0174322
0.0332515
-0.0421264
0.0263828
0.00798231
-0.0169328
0.0351063
-0.0235491
0.0148256
0.0432754
-0.0575339
0.0493649
0.0500369
-0.0867796
0.0800181
0.0545937
-0.105406
0.100849
0.0568515
-0.113084
0.110826
0.0562972
-0.114971
0.115525
0.0523955
-0.117959
0.121861
0.0485466
-0.121947
0.125796
0.0502387
-0.107526
0.105834
0.0586198
-0.0566457
0.0482646
0.069886
0.0187192
-0.0299854
0.0800398
0.0854603
-0.0956141
0.086595
0.120951
-0.127506
0.0882042
0.136484
-0.138093
0.085516
0.151869
-0.149181
0.0810847
0.163853
-0.159422
0.0799944
0.138089
-0.136998
0.0861578
0.0504507
-0.056614
0.0968634
-0.0590531
0.0483475
0.104212
-0.131131
0.123782
0.104505
-0.162793
0.1625
0.102341
-0.181995
0.184159
0.102142
-0.171844
0.172044
0.107572
-0.0972915
0.0918615
0.115476
0.0284
-0.0363044
0.120359
0.14726
-0.152144
0.122245
0.209805
-0.21169
0.124947
0.193915
-0.196618
0.13028
0.0753508
-0.0806835
0.13579
-0.104278
0.0987668
0.139056
-0.226308
0.223042
0.142116
-0.214094
0.211034
0.146578
-0.0470229
0.04256
0.151004
0.167904
-0.172329
0.155698
0.214084
-0.218778
0.160184
0.0411469
-0.0456338
0.162984
-0.158153
0.155353
0.166546
-0.117947
0.114385
0.0173203
-0.0214153
-0.0142567
0.0115489
-0.0143571
0.0185967
-0.0135111
0.0270111
-0.0115621
0.0362368
-0.00833167
0.0452121
-0.00367389
0.0522673
0.00260155
0.0553455
0.0101769
0.0525342
0.018501
0.0425017
0.0268725
0.02488
0.0348246
3.02304e-05
0.0422107
-0.0309353
0.048815
-0.0641382
0.053896
-0.0918607
0.0566049
-0.108114
0.0576706
-0.11415
0.0567724
-0.114073
0.0524028
-0.113589
0.0470815
-0.116626
0.046675
-0.107119
0.0540236
-0.0639944
0.0659459
0.00679696
0.0779085
0.0734977
0.0861502
0.112709
0.0888508
0.133783
0.0869905
0.153729
0.0837453
0.167098
0.0834265
0.138408
0.0890714
0.0448058
0.0984987
-0.0684804
0.10474
-0.137372
0.104389
-0.162442
0.101973
-0.179579
0.101549
-0.17142
0.106684
-0.102427
0.114584
0.0204995
0.119836
0.142008
0.122265
0.207376
0.125755
0.190425
0.131713
0.0693925
0.136982
-0.109546
0.139382
-0.228708
0.141537
-0.216249
0.145397
-0.0508828
0.150341
0.162961
0.156444
0.20798
0.161588
0.0360031
0.163366
-0.159931
0.166081
-0.120661
0.0127813
-0.00982909
0.0116678
-0.00905474
0.0178223
-0.00725633
0.0252127
-0.00427513
0.0332556
4.97885e-05
0.0408872
0.00576738
0.0465497
0.0127157
0.0483971
0.0204926
0.0447573
0.0284771
0.0345172
0.0360456
0.0173115
0.0428791
-0.00680319
0.0489051
-0.0369613
0.0539334
-0.0691665
0.0573014
-0.0952287
0.0583964
-0.109209
0.0583774
-0.114131
0.0571333
-0.112829
0.0528532
-0.109309
0.0466238
-0.110396
0.0441472
-0.104643
0.050024
-0.0698713
0.0622193
-0.00539827
0.0757053
0.0600116
0.0855195
0.102895
0.0894384
0.129865
0.0886464
0.154521
0.0868319
0.168913
0.0874789
0.13776
0.0924376
0.0398471
0.100257
-0.0762994
0.105227
-0.142342
0.104337
-0.161553
0.101649
-0.17689
0.101074
-0.170845
0.106024
-0.107376
0.113868
0.0126561
0.11935
0.136526
0.122347
0.204379
0.126765
0.186008
0.133389
0.0627677
0.138286
-0.114443
0.139684
-0.230106
0.14097
-0.217535
0.144278
-0.0541909
0.149778
0.15746
0.157327
0.200432
0.163168
0.0301622
0.164079
-0.160842
0.16598
-0.122562
0.00774307
-0.00412415
0.0108034
-0.00241267
0.0161109
0.000330816
0.0224692
0.00422708
0.0293594
0.00934744
0.0357668
0.0156309
0.0402662
0.0227931
0.0412349
0.0303554
0.0371951
0.0377262
0.0271465
0.0443793
0.0106583
0.0501261
-0.0125499
0.0549024
-0.0417376
0.0584253
-0.0726894
0.0601691
-0.0969725
0.0599314
-0.108972
0.0588642
-0.113063
0.0572577
-0.111222
0.0535103
-0.105562
0.0470398
-0.103926
0.0428593
-0.100462
0.0469141
-0.073926
0.0588774
-0.0173616
0.0734369
0.0454521
0.0846545
0.0916776
0.0898683
0.124651
0.0903524
0.154037
0.0900517
0.169213
0.0916957
0.136117
0.0960669
0.035476
0.102056
-0.0822883
0.105608
-0.145895
0.104323
-0.160268
0.101314
-0.173881
0.1006
-0.170131
0.105464
-0.11224
0.11324
0.00488
0.118873
0.130893
0.122489
0.200762
0.12794
0.180557
0.135235
0.055473
0.139653
-0.118861
0.139954
-0.230407
0.140329
-0.21791
0.143163
-0.0570251
0.149337
0.151286
0.158406
0.191363
0.164953
0.0236156
0.165103
-0.160992
0.166236
-0.123696
0.00216113
0.00165984
0.00893588
0.00433463
0.0134361
0.00796429
0.0188395
0.0126126
0.0247111
0.0182766
0.0301028
0.0248112
0.0337317
0.031885
0.0341611
0.039017
0.0300631
0.0456819
0.0204816
0.051487
0.00485316
0.0563043
-0.0173672
0.0599904
-0.0454237
0.0621356
-0.0748346
0.0623282
-0.0971651
0.0610925
-0.107736
0.059149
-0.11112
0.0571088
-0.109182
0.0540761
-0.102529
0.0481034
-0.0979532
0.0427832
-0.095142
0.0448523
-0.0759951
0.0560073
-0.0285166
0.0710727
0.0303868
0.0834357
0.0793146
0.0899872
0.118099
0.0918596
0.152165
0.0930842
0.167989
0.0955987
0.133602
0.0995576
0.031517
0.103796
-0.0865263
0.105847
-0.147946
0.104307
-0.158728
0.100925
-0.170499
0.100006
-0.169213
0.104816
-0.11705
0.112563
-0.00286689
0.118377
0.125079
0.122709
0.196431
0.129249
0.174017
0.137169
0.0475525
0.141028
-0.12272
0.140181
-0.22956
0.139573
-0.217302
0.142019
-0.059471
0.149043
0.144261
0.159711
0.180695
0.16696
0.0163669
0.16643
-0.160462
0.166859
-0.124125
-0.00396487
0.00680547
0.00633436
0.0102443
0.00999722
0.0145871
0.0144967
0.0198133
0.0194849
0.0258422
0.024074
0.0324653
0.0271085
0.0393334
0.027293
0.0460025
0.0233939
0.0520435
0.0144407
0.0572122
-0.000315524
0.0613088
-0.0214639
0.0640489
-0.0481638
0.0649237
-0.0757094
0.0637672
-0.0960086
0.0617424
-0.105711
0.0591641
-0.108542
0.0566892
-0.106707
0.054292
-0.100132
0.0494339
-0.0930951
0.0437153
-0.0894234
0.0438461
-0.0761259
0.0535624
-0.0382329
0.0685404
0.0154088
0.0818014
0.0660536
0.0897449
0.110156
0.0930676
0.148842
0.0956754
0.165381
0.0988916
0.130386
0.102527
0.0278817
0.105306
-0.0893053
0.105959
-0.148599
0.104204
-0.156973
0.10046
-0.166755
0.0992249
-0.167978
0.103944
-0.121769
0.111753
-0.0106753
0.117842
0.11899
0.123009
0.191264
0.130636
0.16639
0.139103
0.0390845
0.142359
-0.125975
0.140355
-0.227556
0.138691
-0.215638
0.140818
-0.0615983
0.148911
0.136169
0.161194
0.168411
0.16914
0.00842139
0.168071
-0.159393
0.167892
-0.123946
-0.0105804
0.0115705
0.00351904
0.0152985
0.00626914
0.0199418
0.00985344
0.025426
0.0140006
0.0316123
0.0178878
0.0382288
0.020492
0.0449003
0.0206215
0.0512209
0.0170733
0.0568478
0.00881378
0.0615768
-0.00504455
0.0651254
-0.0250124
0.0669993
-0.0500378
0.0667005
-0.0754106
0.0644678
-0.0937759
0.0617652
-0.103008
0.0588177
-0.105594
0.0560183
-0.103908
0.0540107
-0.0981242
0.0505962
-0.0896806
0.0452451
-0.0840723
0.0437182
-0.074599
0.051411
-0.0459256
0.0657045
0.00111519
0.0796158
0.0521423
0.0889668
0.100805
0.0938545
0.143954
0.0976833
0.161552
0.101476
0.126593
0.104857
0.0245013
0.106427
-0.0908755
0.105912
-0.148084
0.103932
-0.154992
0.0999033
-0.162726
0.0982344
-0.166309
0.102753
-0.126288
0.110733
-0.0186552
0.117228
0.112495
0.123358
0.185134
0.132047
0.157701
0.140955
0.0301771
0.143591
-0.128612
0.140481
-0.224446
0.137713
-0.212869
0.139582
-0.0634671
0.148949
0.126802
0.1628
0.15456
0.171426
-0.000204129
0.169978
-0.157945
0.169314
-0.123282
-0.0176482
0.0172877
0.00120611
0.0206801
0.00287675
0.0249939
0.00553959
0.0301868
0.00880776
0.0361328
0.0119418
0.0425243
0.0141004
0.0489561
0.0141897
0.0550168
0.0110126
0.0603739
0.00345664
0.0647711
-0.00944171
0.0677773
-0.0280186
0.0687793
-0.0510397
0.0674118
-0.0740431
0.06438
-0.0907441
0.0611246
-0.099753
0.0580077
-0.102477
0.0550917
-0.100992
0.0532229
-0.0962554
0.0511888
-0.0876465
0.046913
-0.0797966
0.0442689
-0.071955
0.0495029
-0.0511596
0.0624435
-0.0118254
0.0767232
0.0378627
0.0874564
0.0900717
0.0940103
0.1374
0.0989985
0.156564
0.10334
0.122251
0.106552
0.0212894
0.107102
-0.0914252
0.105621
-0.146603
0.103423
-0.152794
0.0992376
-0.158541
0.0970568
-0.164128
0.101181
-0.130412
0.109378
-0.0268527
0.116486
0.105387
0.12374
0.177879
0.133443
0.147998
0.142652
0.0209677
0.14467
-0.13063
0.140567
-0.220344
0.136714
-0.209016
0.138396
-0.0651491
0.149155
0.116043
0.164471
0.139244
0.173735
-0.00946786
0.172091
-0.156302
0.171105
-0.122296
-0.0251551
0.0251057
-0.000188212
0.0277655
0.000216948
0.0311951
0.00211
0.0355128
0.00449002
0.0406858
0.00676882
0.0464378
0.00834845
0.0523672
0.00826026
0.0580306
0.00534914
0.0630263
-0.00153903
0.0669878
-0.0134032
0.0693022
-0.030333
0.069376
-0.0511135
0.0670854
-0.0717525
0.0634922
-0.0871509
0.0598516
-0.0961124
0.0566857
-0.0993114
0.0538764
-0.0981824
0.0520174
-0.0943963
0.0509801
-0.0866092
0.0482666
-0.0770831
0.045276
-0.0689643
0.0479848
-0.0538684
0.0587995
-0.0226401
0.0730032
0.023659
0.0851846
0.0778903
0.093584
0.129001
0.0995995
0.150549
0.104381
0.11747
0.107563
0.0181068
0.107319
-0.0911807
0.105022
-0.144306
0.102627
-0.1504
0.0984362
-0.15435
0.095753
-0.161445
0.0992306
-0.13389
0.107632
-0.0352543
0.115594
0.0974257
0.124141
0.169332
0.134762
0.137377
0.144126
0.0116044
0.145537
-0.13204
0.140615
-0.215422
0.135804
-0.204205
0.137386
-0.0667311
0.149535
0.103894
0.166154
0.122625
0.17598
-0.0192945
0.174357
-0.154678
0.173261
-0.121199
-0.0330633
0.034441
-0.00100191
0.0362138
-0.00155586
0.038653
-0.000329215
0.0418941
0.00124893
0.0459648
0.00269814
0.0507073
0.00360589
0.0557941
0.00317343
0.060872
0.000271235
0.0652513
-0.00591826
0.0684388
-0.0165908
0.0697916
-0.0316857
0.068863
-0.050185
0.0658562
-0.0687457
0.0619281
-0.0832227
0.0580922
-0.0922766
0.0549331
-0.0961523
0.0523644
-0.0956137
0.0505282
-0.0925601
0.0500014
-0.0860825
0.048903
-0.0759847
0.0464144
-0.0664757
0.0470916
-0.0545456
0.0550511
-0.0305997
0.0683897
0.0103204
0.0816694
0.0646106
0.0920344
0.118636
0.0993453
0.143238
0.104778
0.112037
0.108238
0.0146468
0.10709
-0.0900324
0.104071
-0.141287
0.101513
-0.147842
0.0974132
-0.15025
0.0943587
-0.15839
0.0970749
-0.136606
0.105426
-0.0436053
0.114495
0.0883563
0.124484
0.159344
0.135995
0.125866
0.145402
0.00219696
0.146112
-0.13275
0.140535
-0.209845
0.135094
-0.198764
0.1367
-0.0683371
0.15013
0.0904638
0.167831
0.104924
0.178115
-0.0295782
0.176676
-0.15324
0.175799
-0.120322
-0.0412136
0.0475805
0.000308683
-0.0488911
0.0465119
-0.000487249
0.046439
-0.00025637
0.0471867
0.000501292
0.0488193
0.0010655
0.0514064
0.00101875
0.0548881
-0.000308225
0.0589934
-0.00383403
0.0634672
-0.0103921
0.0676599
-0.0207835
0.070832
-0.0348578
0.0720531
-0.0514062
0.0708519
-0.0675444
0.0677712
-0.080142
0.0636406
-0.088146
0.0592028
-0.0917145
0.0548857
-0.0912966
0.0507805
-0.0884549
0.04734
-0.082642
0.0441359
-0.0727806
0.0401127
-0.0624525
0.0366648
-0.0510977
0.0361702
-0.0301051
0.0385178
0.00797277
0.0415845
0.0615439
0.0446017
0.115619
0.0489447
0.138895
0.0558914
0.10509
0.062201
0.00833716
0.0632202
-0.0910516
0.0604077
-0.138475
0.0568809
-0.144315
0.0528127
-0.146182
0.0489401
-0.154518
0.0463593
-0.134025
0.0454326
-0.0426787
0.0457515
0.0880374
0.0484588
0.156636
0.053265
0.12106
0.056834
-0.00137204
0.0559134
-0.13183
0.0517191
-0.205651
0.0469767
-0.194022
0.0446805
-0.0660409
0.0467494
0.0883949
0.0507077
0.100966
0.0521054
-0.0309759
0.0494347
-0.150569
0.0472246
-0.118112
-0.0410044
0.0606856
0.000871358
-0.0612483
0.0598244
0.000373987
0.059496
7.20326e-05
0.0599536
4.37257e-05
0.0611714
-0.000152308
0.0632017
-0.00101158
0.0660256
-0.00313213
0.0694237
-0.00723211
0.0730191
-0.0139875
0.0761535
-0.0239178
0.0780675
-0.0367718
0.0780253
-0.051364
0.0758526
-0.0653717
0.0721176
-0.076407
0.0675683
-0.0835967
0.0628931
-0.0870393
0.058481
-0.0868845
0.0542993
-0.0842732
0.0507184
-0.0790611
0.0475763
-0.0696384
0.0437349
-0.0586112
0.0400437
-0.0474064
0.0388386
-0.0289
0.0407289
0.00608247
0.0439729
0.0582999
0.0475488
0.112043
0.0527023
0.133741
0.0605961
0.0971965
0.0671866
0.00174669
0.0677411
-0.0916061
0.0644353
-0.135169
0.0605446
-0.140424
0.0562182
-0.141856
0.0520565
-0.150356
0.0491782
-0.131147
0.0481362
-0.0416367
0.0486586
0.087515
0.0517939
0.153501
0.057069
0.115785
0.0607497
-0.00505266
0.0595769
-0.130657
0.055003
-0.201077
0.0498971
-0.188916
0.0474967
-0.0636405
0.0497761
0.0861155
0.0540344
0.0967077
0.055508
-0.0324495
0.0526591
-0.14772
0.0503144
-0.115767
-0.0407631
0.0726509
0.00140026
-0.0731798
0.0720566
0.000968252
0.0718046
0.000324029
0.0721666
-0.000318271
0.0731471
-0.00113277
0.0747593
-0.0026238
0.0769555
-0.00532834
0.079524
-0.00980054
0.0820765
-0.0165401
0.0840092
-0.0258505
0.0846905
-0.0374532
0.0835997
-0.0502732
0.0806996
-0.0624716
0.076559
-0.0722664
0.0718216
-0.0788593
0.0670304
-0.0822481
0.0625356
-0.0823896
0.0582674
-0.0800051
0.0545048
-0.0752984
0.0513539
-0.0664876
0.0477329
-0.0549902
0.043865
-0.0435385
0.0419443
-0.0269793
0.04325
0.00477675
0.0465753
0.0549747
0.0507772
0.107841
0.0569225
0.127596
0.0657785
0.0883405
0.072508
-0.00498286
0.0725173
-0.0916154
0.0687182
-0.13137
0.0644648
-0.136171
0.0598876
-0.137279
0.0554076
-0.145876
0.0521814
-0.127921
0.0510121
-0.0404673
0.0517719
0.0867551
0.0554518
0.149821
0.061181
0.110056
0.0649239
-0.0087956
0.0634804
-0.129213
0.0585119
-0.196109
0.0530234
-0.183427
0.0504933
-0.0611104
0.0530399
0.0835689
0.057601
0.0921466
0.0591371
-0.0339856
0.0561105
-0.144693
0.053596
-0.113253
-0.0405097
0.0829976
0.00185033
-0.0834476
0.0827005
0.00126536
0.0826032
0.00042127
0.0829338
-0.000648838
0.0837596
-0.00195857
0.0850429
-0.00390707
0.0866829
-0.0069684
0.088469
-0.0115866
0.0900443
-0.0181154
0.090911
-0.0267172
0.0905859
-0.037128
0.0887052
-0.0483926
0.0853308
-0.0590972
0.0809726
-0.0679082
0.0761607
-0.0740474
0.0713242
-0.0774116
0.0667863
-0.0778517
0.0624884
-0.0757072
0.058585
-0.0713951
0.0553916
-0.0632942
0.0520423
-0.0516409
0.0481511
-0.0396472
0.0455902
-0.0244185
0.0461908
0.00417617
0.049459
0.0517065
0.0543318
0.102968
0.0616377
0.12029
0.071487
0.0784913
0.0781764
-0.0116722
0.0775392
-0.0909782
0.0732344
-0.127065
0.0686126
-0.131549
0.0637913
-0.132457
0.0589788
-0.141063
0.0553753
-0.124317
0.0540726
-0.0391646
0.0551277
0.0857
0.0594187
0.14553
0.0656151
0.10386
0.0693816
-0.0125622
0.0676327
-0.127464
0.0622486
-0.190725
0.0563612
-0.17754
0.0537057
-0.0584549
0.0565454
0.0807292
0.0614227
0.0872693
0.0630117
-0.0355747
0.0597971
-0.141479
0.0571038
-0.110559
-0.0402458
0.0914677
0.00211338
-0.0917307
0.091428
0.00130501
0.091538
0.000311306
0.0919031
-0.00101396
0.0926087
-0.00266412
0.0936175
-0.0049159
0.0948022
-0.00815309
0.0959451
-0.0127294
0.0967515
-0.0189219
0.0968481
-0.0268138
0.0958095
-0.0360894
0.0934213
-0.0460044
0.0898306
-0.0555065
0.0854301
-0.0635076
0.080654
-0.0692713
0.075842
-0.0725997
0.0712906
-0.0733003
0.0669976
-0.0714143
0.0629991
-0.0673965
0.0597198
-0.060015
0.0566446
-0.0485656
0.0529278
-0.0359304
0.0498902
-0.0213808
0.0497022
0.00436409
0.0527346
0.0486742
0.0583284
0.0973742
0.0669634
0.111655
0.0777574
0.0676973
0.0841706
-0.0180854
0.0827873
-0.089595
0.0779699
-0.122247
0.0729895
-0.126569
0.0679402
-0.127408
0.0627886
-0.135912
0.0587785
-0.120307
0.0573339
-0.03772
0.0587591
0.0842748
0.0637239
0.140565
0.07039
0.0971934
0.0741328
-0.016305
0.072042
-0.125374
0.0662252
-0.184908
0.0599282
-0.171243
0.057156
-0.0556826
0.0603147
0.0775704
0.0655186
0.0820654
0.0671465
-0.0372026
0.0637343
-0.138066
0.0608551
-0.10768
-0.0399732
0.0982831
0.00218733
-0.0983571
0.0984307
0.00115745
0.0987335
8.45427e-06
0.0991722
-0.00145259
0.0998052
-0.00329717
0.100609
-0.00572008
0.101466
-0.00900984
0.102179
-0.0134419
0.10247
-0.0192135
0.102012
-0.0263561
0.100542
-0.0346189
0.0979465
-0.0434089
0.0943343
-0.0518943
0.0900128
-0.0591861
0.0853415
-0.0646001
0.0806038
-0.0678619
0.0760661
-0.0687625
0.0718003
-0.0671485
0.0677665
-0.0633627
0.0643794
-0.0566279
0.0615251
-0.0457113
0.0581836
-0.0325889
0.0549338
-0.0181311
0.0539748
0.00532308
0.0566028
0.0460462
0.0629545
0.0910224
0.0730411
0.101568
0.0846103
0.056128
0.0904426
-0.0239177
0.0882383
-0.0873907
0.0829162
-0.116925
0.0776015
-0.121254
0.0723468
-0.122153
0.0668556
-0.13042
0.0624114
-0.115863
0.0608173
-0.0361258
0.0626975
0.0823946
0.0683947
0.134868
0.0755216
0.0900665
0.0791845
-0.0199678
0.0767169
-0.122906
0.0704559
-0.178647
0.0637443
-0.164531
0.0608704
-0.0528088
0.064373
0.0740678
0.0699087
0.0765297
0.0715562
-0.03885
0.0679377
-0.134448
0.0648685
-0.104611
-0.039694
0.104211
0.00202685
-0.10405
0.104479
0.000888624
0.104875
-0.000386884
0.105356
-0.00193394
0.105936
-0.0038775
0.106586
-0.00636967
0.107193
-0.00961677
0.107582
-0.0138312
0.107526
-0.0191572
0.106772
-0.0256026
0.105119
-0.0329657
0.102487
-0.0407767
0.0989618
-0.048369
0.0947849
-0.0550093
0.0902583
-0.0600735
0.0856305
-0.063234
0.0811358
-0.0642678
0.07691
-0.0629227
0.0729016
-0.0593543
0.0694225
-0.0531488
0.066694
-0.0429829
0.0638635
-0.0297583
0.0607538
-0.0150215
0.0592138
0.00686314
0.0613812
0.0438788
0.0685136
0.08389
0.0800419
0.09004
0.0920238
0.0441462
0.0969139
-0.0288078
0.0938584
-0.0843352
0.0880628
-0.11113
0.0824551
-0.115646
0.0770242
-0.116722
0.0712015
-0.124598
0.0662987
-0.11096
0.0645498
-0.0343768
0.066975
0.0799694
0.0734557
0.128387
0.0810209
0.0825013
0.0845397
-0.0234866
0.081665
-0.120031
0.0749551
-0.171937
0.0678319
-0.157408
0.0648799
-0.0498567
0.0687482
0.0701995
0.0746138
0.0706641
0.0762555
-0.0404918
0.0724233
-0.130616
0.0691636
-0.101351
-0.0394109
0.109824
0.00174168
-0.109539
0.110166
0.000546653
0.110589
-0.000810399
0.111068
-0.00241269
0.111583
-0.00439254
0.112094
-0.00688115
0.112509
-0.0100309
0.112674
-0.0139961
0.112398
-0.0188815
0.111483
-0.0246875
0.109766
-0.0312487
0.107182
-0.0381927
0.103795
-0.0449827
0.0997955
-0.0510093
0.0954361
-0.0557141
0.0909427
-0.0587406
0.0865219
-0.0598471
0.0823467
-0.0587475
0.0784098
-0.0554174
0.0748952
-0.0496342
0.072202
-0.0402897
0.0698866
-0.027443
0.0672884
-0.0124233
0.0655828
0.00856882
0.0674854
0.0419762
0.0754143
0.0759611
0.0881153
0.077339
0.0998914
0.0323701
0.103475
-0.0323917
0.0996057
-0.0804656
0.0934018
-0.104926
0.0875586
-0.109803
0.081986
-0.11115
0.0758508
-0.118463
0.070472
-0.105581
0.068565
-0.0324699
0.071623
0.0769115
0.0789265
0.121084
0.0868921
0.0745357
0.0901973
-0.0267919
0.0868925
-0.116727
0.079738
-0.164783
0.0722171
-0.149887
0.0692202
-0.0468598
0.0734712
0.0659485
0.0796547
0.0644806
0.0812589
-0.0420959
0.0772071
-0.126564
0.0737613
-0.0979056
-0.0391269
0.115478
0.00137752
-0.115114
0.115861
0.00016319
0.116281
-0.0012301
0.116726
-0.00285791
0.117166
-0.0048325
0.117554
-0.00726898
0.117807
-0.0102841
0.117799
-0.0139877
0.117371
-0.0184539
0.11636
-0.0236765
0.114632
-0.0295204
0.112129
-0.0356899
0.108897
-0.0417507
0.105084
-0.0471962
0.100903
-0.0515331
0.0965607
-0.0543982
0.0922439
-0.0555303
0.0881362
-0.0546398
0.0842958
-0.0515769
0.080824
-0.0461625
0.0781312
-0.0375969
0.0762082
-0.0255199
0.0743646
-0.0105797
0.0730903
0.00984306
0.0752625
0.039804
0.0839897
0.0672339
0.0972376
0.0640911
0.107972
0.021636
0.109993
-0.0344132
0.105436
-0.075908
0.0989318
-0.0984222
0.0929237
-0.103795
0.0872462
-0.105472
0.0808314
-0.112048
0.0749721
-0.0997221
0.072906
-0.0304038
0.0766704
0.0731471
0.0848194
0.112935
0.0931313
0.0662237
0.0961512
-0.0298118
0.0924038
-0.112979
0.08482
-0.157199
0.0769298
-0.141997
0.0739324
-0.0438624
0.0785754
0.0613055
0.0850522
0.0580037
0.0865799
-0.0436235
0.0823047
-0.122289
0.0786833
-0.0942842
-0.0388459
0.121353
0.000969725
-0.120945
0.121752
-0.000236445
0.122151
-0.00162906
0.122545
-0.00325201
0.122904
-0.00519103
0.123177
-0.00754238
0.123291
-0.010398
0.12314
-0.0138369
0.122595
-0.0179082
0.121518
-0.0225996
0.119798
-0.0278007
0.117384
-0.0332756
0.114306
-0.0386725
0.110679
-0.04357
0.106684
-0.0475373
0.102506
-0.0502204
0.09832
-0.0513444
0.0943051
-0.050625
0.0905736
-0.0478454
0.0872133
-0.0428022
0.0845562
-0.0349397
0.0828705